 Gaussian 16, Revision A.03,
 Gaussian 16:  ES64L-G16RevA.03 25-Dec-2016

 ----------
 #p opt pm3
 ----------

 ------------------------------------------------
 Conformer number 018. Energy MM = 0.000 kcal/mol
 ------------------------------------------------
 Symbolic Z-matrix:
 Charge =  0 Multiplicity = 1

 SCF Done:  E(RPM3) = -0.888099251270E-01 A.U. after   13 cycles
 SCF Done:  E(RPM3) = -0.112510887817     A.U. after   12 cycles
 SCF Done:  E(RPM3) = -0.117815756619     A.U. after   12 cycles
 SCF Done:  E(RPM3) = -0.118782244450     A.U. after   12 cycles
 SCF Done:  E(RPM3) = -0.119639268889     A.U. after   12 cycles
 SCF Done:  E(RPM3) = -0.120047668431     A.U. after   11 cycles
 SCF Done:  E(RPM3) = -0.120364635334     A.U. after   11 cycles
 SCF Done:  E(RPM3) = -0.120500033756     A.U. after   11 cycles
 SCF Done:  E(RPM3) = -0.120514314101     A.U. after   10 cycles
 SCF Done:  E(RPM3) = -0.120531205590     A.U. after   11 cycles
 SCF Done:  E(RPM3) = -0.120533475987     A.U. after   10 cycles
 SCF Done:  E(RPM3) = -0.120534260806     A.U. after    9 cycles
 SCF Done:  E(RPM3) = -0.120534726772     A.U. after    9 cycles
 SCF Done:  E(RPM3) = -0.120535005705     A.U. after    9 cycles
 SCF Done:  E(RPM3) = -0.120535142535     A.U. after    9 cycles
 SCF Done:  E(RPM3) = -0.120535179726     A.U. after    8 cycles
 Optimization completed.
    -- Stationary point found.

                         Standard orientation:
 ---------------------------------------------------------------------
 Center     Atomic      Atomic             Coordinates (Angstroms)
 Number     Number       Type             X           Y           Z
 ---------------------------------------------------------------------
      1          6           0        2.121715   -0.917191    0.184176
      2          1           0        1.515167   -1.778910   -0.143206
      3          1           0        2.235000   -0.992752    1.273427
      4          1           0        3.119021   -1.018523   -0.260272
      5          6           0        1.461725    0.380863   -0.220950
      6          1           0        1.500346    0.500983   -1.322452
      7          1           0        2.025086    1.240198    0.192939
      8          6           0       -0.000163    0.434527    0.260166
      9          1           0       -0.049403    0.277341    1.362597
     10          8           0       -0.532310    1.733210    0.134837
     11          6           0       -0.841875   -0.623259   -0.473354
     12          1           0       -0.556405    1.941017   -0.791265
     13          1           0       -0.974994   -0.338520   -1.536422
     14          1           0       -0.258570   -1.572236   -0.487799
     15          6           0       -2.185759   -0.843917    0.179313
     16          1           0       -2.080136   -1.185594    1.217695
     17          1           0       -2.768217   -1.602605   -0.358858
     18          1           0       -2.782272    0.077785    0.198824
 ---------------------------------------------------------------------

 The electronic state is 1-A.
 Alpha  occ. eigenvalues --   -1.49045  -1.26196  -1.19476  -0.93056  -0.82718
 Alpha  occ. eigenvalues --   -0.77246  -0.62502  -0.61285  -0.58261  -0.57004
 Alpha  occ. eigenvalues --   -0.53795  -0.49770  -0.49643  -0.48798  -0.46856
 Alpha  occ. eigenvalues --   -0.45724  -0.43423  -0.42383  -0.40674
 Alpha virt. eigenvalues --    0.11477   0.12882   0.13132   0.13334   0.14050
 Alpha virt. eigenvalues --    0.14377   0.14578   0.15241   0.15520   0.16060
 Alpha virt. eigenvalues --    0.16908   0.17230   0.17340   0.17654   0.18307

 Mulliken charges:
               1
     1  C   -0.112175
     2  H    0.043953
     3  H    0.041377
     4  H    0.040782
     5  C   -0.136717
     6  H    0.048119
     7  H    0.063024
     8  C    0.070887
     9  H    0.074886
    10  O   -0.305938
    11  C   -0.142450
    12  H    0.181549
    13  H    0.050703
    14  H    0.064370
    15  C   -0.105081
    16  H    0.039410
    17  H    0.036004
    18  H    0.047297
 Sum of Mulliken charges =  -0.00000

 Dipole moment (field-independent basis, Debye):
    X=              0.4955    Y=             -1.0086    Z=             -1.0779  Tot=              1.5571
 N-N= 1.705115526650D+02 E-N=-2.554044565525D+02  KE=-5.970260240236D+01
 Leave Link  601 at Wed Sep  7 15:36:09 2022, MaxMem=   131072000 cpu:               0.0 elap:               0.0
 (Enter /opt/g16/l9999.exe)
 1\1\GINC-TOTEM2\FOpt\RPM3\ZDO\C5H12O1\JRAMOS\07-Sep-2022\0\\#p opt pm3
 \\Conformer number 018. Energy MM = 0.000 kcal/mol\\0,1\C,10.771844082
 4,9.2186813047,9.452482168\H,10.6525404167,8.301633424,8.8504609974\H,
 10.1352410553,9.1114414585,10.3403154178\H,11.8125829101,9.2642880567,
 9.7948331915\C,10.3994806306,10.4383696847,8.6410877427\H,11.150114930
 3,10.6096241831,7.8433113373\H,10.4295394982,11.3438430972,9.278545163
 7\C,8.9996206514,10.284822586,8.0179633482\H,8.2451460592,10.075446798

 Normal termination of Gaussian 16 at Wed Sep  7 15:36:09 2022.
