 Gaussian 16, Revision A.03,
 Gaussian 16:  ES64L-G16RevA.03 25-Dec-2016

 ----------
 #p opt pm3
 ----------

 ------------------------------------------------
 Conformer number 002. Energy MM = 0.000 kcal/mol
 ------------------------------------------------
 Symbolic Z-matrix:
 Charge =  0 Multiplicity = 1

 SCF Done:  E(RPM3) = -0.859483635905E-01 A.U. after   13 cycles
 SCF Done:  E(RPM3) = -0.108591116341     A.U. after   12 cycles
 SCF Done:  E(RPM3) = -0.110648153466     A.U. after   12 cycles
 SCF Done:  E(RPM3) = -0.110014712221     A.U. after   12 cycles
 SCF Done:  E(RPM3) = -0.110226019109     A.U. after   12 cycles
 SCF Done:  E(RPM3) = -0.113823418261     A.U. after    9 cycles
 SCF Done:  E(RPM3) = -0.114269434652     A.U. after   12 cycles
 SCF Done:  E(RPM3) = -0.114185278764     A.U. after   12 cycles
 SCF Done:  E(RPM3) = -0.114512388827     A.U. after   11 cycles
 SCF Done:  E(RPM3) = -0.114581045742     A.U. after   11 cycles
 SCF Done:  E(RPM3) = -0.114621564603     A.U. after   11 cycles
 SCF Done:  E(RPM3) = -0.114634802224     A.U. after   11 cycles
 SCF Done:  E(RPM3) = -0.114637669924     A.U. after   10 cycles
 SCF Done:  E(RPM3) = -0.114638140291     A.U. after    9 cycles
 SCF Done:  E(RPM3) = -0.114638291012     A.U. after    9 cycles
 SCF Done:  E(RPM3) = -0.114638409477     A.U. after    9 cycles
 SCF Done:  E(RPM3) = -0.114638479301     A.U. after    9 cycles
 SCF Done:  E(RPM3) = -0.114638507912     A.U. after    9 cycles
 Optimization completed.
    -- Stationary point found.

                         Standard orientation:
 ---------------------------------------------------------------------
 Center     Atomic      Atomic             Coordinates (Angstroms)
 Number     Number       Type             X           Y           Z
 ---------------------------------------------------------------------
      1          6           0       -2.053726    0.340250    0.148811
      2          1           0       -2.212419    0.211918    1.227182
      3          1           0       -3.028166    0.237560   -0.344425
      4          1           0       -1.704280    1.374034   -0.018630
      5          6           0       -1.054748   -0.652484   -0.400101
      6          1           0       -0.836458   -0.412849   -1.461470
      7          1           0       -1.496969   -1.668633   -0.412855
      8          6           0        0.250192   -0.687581    0.411434
      9          1           0        0.048116   -1.172138    1.400164
     10          8           0        1.128559   -1.529668   -0.316849
     11          6           0        0.864959    0.698407    0.683771
     12          1           0        1.964496   -1.506050    0.129112
     13          1           0        0.288738    1.182407    1.498175
     14          1           0        1.891932    0.574933    1.085064
     15          6           0        0.891193    1.610689   -0.520514
     16          1           0        1.348719    1.125799   -1.392190
     17          1           0        1.455397    2.528619   -0.314420
     18          1           0       -0.134791    1.906067   -0.801314
 ---------------------------------------------------------------------

 The electronic state is 1-A.
 Alpha  occ. eigenvalues --   -1.48961  -1.27354  -1.16424  -0.94927  -0.85227
 Alpha  occ. eigenvalues --   -0.71172  -0.63573  -0.61726  -0.60745  -0.55340
 Alpha  occ. eigenvalues --   -0.51617  -0.50775  -0.49425  -0.49312  -0.47737
 Alpha  occ. eigenvalues --   -0.44196  -0.43113  -0.42558  -0.40019
 Alpha virt. eigenvalues --    0.11707   0.12489   0.13206   0.13539   0.14091
 Alpha virt. eigenvalues --    0.14399   0.15033   0.15596   0.15731   0.16181
 Alpha virt. eigenvalues --    0.16833   0.17515   0.17604   0.17833   0.18548

 Mulliken charges:
               1
     1  C   -0.117727
     2  H    0.038607
     3  H    0.040462
     4  H    0.046323
     5  C   -0.109316
     6  H    0.064546
     7  H    0.058085
     8  C    0.084747
     9  H    0.034887
    10  O   -0.313324
    11  C   -0.132575
    12  H    0.185674
    13  H    0.055357
    14  H    0.046975
    15  C   -0.119246
    16  H    0.049984
    17  H    0.037837
    18  H    0.048702
 Sum of Mulliken charges =  -0.00000

 Dipole moment (field-independent basis, Debye):
    X=              0.2386    Y=              0.9118    Z=              1.1301  Tot=              1.4716
 N-N= 1.726622461489D+02 E-N=-2.597891708545D+02  KE=-5.968052687747D+01
 Leave Link  601 at Wed Sep  7 15:33:30 2022, MaxMem=   131072000 cpu:               0.0 elap:               0.0
 (Enter /opt/g16/l9999.exe)
 1\1\GINC-TOTEM2\FOpt\RPM3\ZDO\C5H12O1\JRAMOS\07-Sep-2022\0\\#p opt pm3
 \\Conformer number 002. Energy MM = 0.000 kcal/mol\\0,1\C,5.421315784,
 9.7902530633,13.8862896316\H,4.6779691066,8.9977954827,14.0411555871\H
 ,6.3485767125,9.4766541142,14.3814691901\H,5.627382659,9.8505661687,12
 .8033507146\C,4.9451149486,11.1256258417,14.4104974359\H,5.6712814627,
 11.9163557893,14.1294127088\H,4.9342969964,11.1165833318,15.5186860596
 \C,3.5420514662,11.493651935,13.9019115388\H,2.7908390785,10.831791500

 Normal termination of Gaussian 16 at Wed Sep  7 15:33:30 2022.
