 Gaussian 16, Revision A.03,
 Gaussian 16:  ES64L-G16RevA.03 25-Dec-2016

 ----------
 #p opt pm3
 ----------

 ------------------------------------------------
 Conformer number 008. Energy MM = 0.000 kcal/mol
 ------------------------------------------------
 Symbolic Z-matrix:
 Charge =  0 Multiplicity = 1

 SCF Done:  E(RPM3) = -0.862622834703E-01 A.U. after   12 cycles
 SCF Done:  E(RPM3) = -0.113182717735     A.U. after   12 cycles
 SCF Done:  E(RPM3) = -0.117901187656     A.U. after   12 cycles
 SCF Done:  E(RPM3) = -0.118625826801     A.U. after   11 cycles
 SCF Done:  E(RPM3) = -0.119094336021     A.U. after   11 cycles
 SCF Done:  E(RPM3) = -0.119499022324     A.U. after   12 cycles
 SCF Done:  E(RPM3) = -0.119643913792     A.U. after   11 cycles
 SCF Done:  E(RPM3) = -0.119689456800     A.U. after   11 cycles
 SCF Done:  E(RPM3) = -0.119692075645     A.U. after   10 cycles
 SCF Done:  E(RPM3) = -0.119692797825     A.U. after    9 cycles
 SCF Done:  E(RPM3) = -0.119693253938     A.U. after    9 cycles
 SCF Done:  E(RPM3) = -0.119693746903     A.U. after    9 cycles
 SCF Done:  E(RPM3) = -0.119693881209     A.U. after    9 cycles
 Optimization completed.
    -- Stationary point found.

                         Standard orientation:
 ---------------------------------------------------------------------
 Center     Atomic      Atomic             Coordinates (Angstroms)
 Number     Number       Type             X           Y           Z
 ---------------------------------------------------------------------
      1          6           0        2.521801   -0.109846    0.323112
      2          1           0        2.665879    0.952990    0.087528
      3          1           0        3.407809   -0.649596   -0.035017
      4          1           0        2.500814   -0.200557    1.417384
      5          6           0        1.259583   -0.655268   -0.303952
      6          1           0        1.162294   -1.733324   -0.067312
      7          1           0        1.327459   -0.597230   -1.409173
      8          6           0       -0.000083    0.080462    0.185929
      9          1           0       -0.000518    0.154164    1.298234
     10          8           0        0.000382    1.439820   -0.186222
     11          6           0       -1.259943   -0.654362   -0.304957
     12          1           0        0.001672    1.473510   -1.135086
     13          1           0       -1.328125   -0.594287   -1.410057
     14          1           0       -1.162658   -1.732867   -0.070387
     15          6           0       -2.521884   -0.109881    0.323470
     16          1           0       -3.408133   -0.648499   -0.035741
     17          1           0       -2.665556    0.953534    0.090254
     18          1           0       -2.500832   -0.203032    1.417535
 ---------------------------------------------------------------------

 The electronic state is 1-A.
 Alpha  occ. eigenvalues --   -1.48603  -1.24178  -1.21240  -0.94872  -0.78948
 Alpha  occ. eigenvalues --   -0.78590  -0.62882  -0.61513  -0.59182  -0.55240
 Alpha  occ. eigenvalues --   -0.53179  -0.51801  -0.48671  -0.48488  -0.46943
 Alpha  occ. eigenvalues --   -0.44126  -0.43610  -0.43402  -0.40749
 Alpha virt. eigenvalues --    0.11336   0.12739   0.13405   0.13924   0.14084
 Alpha virt. eigenvalues --    0.14274   0.14686   0.15319   0.15745   0.16148
 Alpha virt. eigenvalues --    0.17204   0.17295   0.17465   0.17617   0.18357

 Mulliken charges:
               1
     1  C   -0.107023
     2  H    0.047927
     3  H    0.036078
     4  H    0.040100
     5  C   -0.132975
     6  H    0.055704
     7  H    0.048962
     8  C    0.070297
     9  H    0.075503
    10  O   -0.304934
    11  C   -0.132958
    12  H    0.181591
    13  H    0.048964
    14  H    0.055684
    15  C   -0.107024
    16  H    0.036071
    17  H    0.047961
    18  H    0.040071
 Sum of Mulliken charges =   0.00000

 Dipole moment (field-independent basis, Debye):
    X=              0.0015    Y=             -1.1955    Z=             -0.8680  Tot=              1.4774
 N-N= 1.698600521530D+02 E-N=-2.541520397212D+02  KE=-5.968310504609D+01
 Leave Link  601 at Wed Sep  7 15:33:56 2022, MaxMem=   131072000 cpu:               0.0 elap:               0.0
 (Enter /opt/g16/l9999.exe)
 1\1\GINC-TOTEM2\FOpt\RPM3\ZDO\C5H12O1\JRAMOS\07-Sep-2022\0\\#p opt pm3
 \\Conformer number 008. Energy MM = 0.000 kcal/mol\\0,1\C,11.196835805
 6,3.8928335354,4.3067612348\H,11.5391463429,4.4961824844,5.1580375943\
 H,12.0811605313,3.6315231962,3.7115446112\H,10.7862169248,2.9591960841
 ,4.7139616848\C,10.1759157361,4.6316142862,3.4726071877\H,9.8749454258
 ,4.0037773623,2.6106863329\H,10.6300642511,5.5430419667,3.0338163337\C
 ,8.9215791786,5.0052757561,4.281963493\H,8.5433657288,4.1207050533,4.8

 Normal termination of Gaussian 16 at Wed Sep  7 15:33:56 2022.
