 Gaussian 16, Revision A.03,
 Gaussian 16:  ES64L-G16RevA.03 25-Dec-2016

 ----------
 #p opt pm3
 ----------

 ------------------------------------------------
 Conformer number 003. Energy MM = 0.000 kcal/mol
 ------------------------------------------------
 Symbolic Z-matrix:
 Charge =  0 Multiplicity = 1

 SCF Done:  E(RPM3) = -0.865093339696E-01 A.U. after   12 cycles
 SCF Done:  E(RPM3) = -0.109857079370     A.U. after   12 cycles
 SCF Done:  E(RPM3) = -0.114858925885     A.U. after   11 cycles
 SCF Done:  E(RPM3) = -0.115635170262     A.U. after   11 cycles
 SCF Done:  E(RPM3) = -0.116088588008     A.U. after   11 cycles
 SCF Done:  E(RPM3) = -0.116474021708     A.U. after   12 cycles
 SCF Done:  E(RPM3) = -0.116674518950     A.U. after   10 cycles
 SCF Done:  E(RPM3) = -0.116724425421     A.U. after   11 cycles
 SCF Done:  E(RPM3) = -0.116741722172     A.U. after   10 cycles
 SCF Done:  E(RPM3) = -0.117093319394     A.U. after   12 cycles
 SCF Done:  E(RPM3) = -0.988396993990E-01 A.U. after   12 cycles
 SCF Done:  E(RPM3) = -0.117212108690     A.U. after   10 cycles
 SCF Done:  E(RPM3) = -0.117342711210     A.U. after   11 cycles
 SCF Done:  E(RPM3) = -0.117374965357     A.U. after   10 cycles
 SCF Done:  E(RPM3) = -0.117394629775     A.U. after   10 cycles
 SCF Done:  E(RPM3) = -0.117396717697     A.U. after    9 cycles
 SCF Done:  E(RPM3) = -0.117397436686     A.U. after    9 cycles
 SCF Done:  E(RPM3) = -0.117397586431     A.U. after    9 cycles
 SCF Done:  E(RPM3) = -0.117397700839     A.U. after    9 cycles
 SCF Done:  E(RPM3) = -0.117397769207     A.U. after    9 cycles
 Optimization completed.
    -- Stationary point found.

                         Standard orientation:
 ---------------------------------------------------------------------
 Center     Atomic      Atomic             Coordinates (Angstroms)
 Number     Number       Type             X           Y           Z
 ---------------------------------------------------------------------
      1          6           0       -2.179830   -0.847155   -0.204504
      2          1           0       -2.787912    0.064643   -0.267858
      3          1           0       -2.770764   -1.599281    0.333834
      4          1           0       -2.035278   -1.215632   -1.229089
      5          6           0       -0.862539   -0.592372    0.490604
      6          1           0       -0.275475   -1.537027    0.559426
      7          1           0       -1.038418   -0.268844    1.535656
      8          6           0       -0.001322    0.442466   -0.248164
      9          1           0       -0.051723    0.256249   -1.350519
     10          8           0       -0.553490    1.717103    0.028142
     11          6           0        1.466140    0.360302    0.214574
     12          1           0       -0.026715    2.347806   -0.443914
     13          1           0        2.048535    1.200788   -0.213238
     14          1           0        1.519405    0.490630    1.313744
     15          6           0        2.092767   -0.955803   -0.185292
     16          1           0        1.476202   -1.799806    0.168457
     17          1           0        3.096819   -1.070235    0.240392
     18          1           0        2.181950   -1.050742   -1.275326
 ---------------------------------------------------------------------

 The electronic state is 1-A.
 Alpha  occ. eigenvalues --   -1.48430  -1.26481  -1.19344  -0.93009  -0.82693
 Alpha  occ. eigenvalues --   -0.74693  -0.66388  -0.59055  -0.58143  -0.55040
 Alpha  occ. eigenvalues --   -0.53780  -0.51984  -0.49104  -0.47913  -0.47207
 Alpha  occ. eigenvalues --   -0.45253  -0.43002  -0.42185  -0.40359
 Alpha virt. eigenvalues --    0.11607   0.12963   0.13133   0.13453   0.14133
 Alpha virt. eigenvalues --    0.14405   0.15015   0.15301   0.16008   0.16085
 Alpha virt. eigenvalues --    0.17083   0.17279   0.17372   0.18377   0.18629

 Mulliken charges:
               1
     1  C   -0.105695
     2  H    0.048943
     3  H    0.035555
     4  H    0.033640
     5  C   -0.115062
     6  H    0.058141
     7  H    0.064585
     8  C    0.077386
     9  H    0.042339
    10  O   -0.308014
    11  C   -0.138950
    12  H    0.183529
    13  H    0.047990
    14  H    0.061914
    15  C   -0.113365
    16  H    0.047262
    17  H    0.041238
    18  H    0.038564
 Sum of Mulliken charges =   0.00000

 Dipole moment (field-independent basis, Debye):
    X=              1.2055    Y=             -0.4048    Z=             -0.7550  Tot=              1.4789
 N-N= 1.704277942821D+02 E-N=-2.553363261909D+02  KE=-5.967282933707D+01
 Leave Link  601 at Wed Sep  7 15:33:34 2022, MaxMem=   131072000 cpu:               0.0 elap:               0.0
 (Enter /opt/g16/l9999.exe)
 1\1\GINC-TOTEM2\FOpt\RPM3\ZDO\C5H12O1\JRAMOS\07-Sep-2022\0\\#p opt pm3
 \\Conformer number 003. Energy MM = 0.000 kcal/mol\\0,1\C,12.407700379
 ,13.7256596033,6.0684144469\H,12.4397910153,12.6516514298,6.293425873\
 H,12.987766953,14.241301655,6.8445193349\H,12.930684272,13.8756096425,
 5.1142405243\C,10.9888956682,14.2430833246,6.0173096126\H,10.986453241
 8,15.3376142925,5.8081412084\H,10.5027138553,14.1230371907,7.005719914
 2\C,10.1538248073,13.5552674724,4.9273889583\H,10.7668025593,13.443358

 Normal termination of Gaussian 16 at Wed Sep  7 15:33:34 2022.
