 Gaussian 16, Revision A.03,
 Gaussian 16:  ES64L-G16RevA.03 25-Dec-2016

 ----------
 #p opt pm3
 ----------

 ------------------------------------------------
 Conformer number 024. Energy MM = 0.000 kcal/mol
 ------------------------------------------------
 Symbolic Z-matrix:
 Charge =  0 Multiplicity = 1

 SCF Done:  E(RPM3) = -0.920317441364E-01 A.U. after   13 cycles
 SCF Done:  E(RPM3) = -0.113285196869     A.U. after   11 cycles
 SCF Done:  E(RPM3) = -0.116191758137     A.U. after   11 cycles
 SCF Done:  E(RPM3) = -0.115638672036     A.U. after   12 cycles
 SCF Done:  E(RPM3) = -0.116707957447     A.U. after   11 cycles
 SCF Done:  E(RPM3) = -0.117495287667     A.U. after   12 cycles
 SCF Done:  E(RPM3) = -0.118276123181     A.U. after   12 cycles
 SCF Done:  E(RPM3) = -0.118409479779     A.U. after   10 cycles
 SCF Done:  E(RPM3) = -0.118459172291     A.U. after   11 cycles
 SCF Done:  E(RPM3) = -0.118469614088     A.U. after   10 cycles
 SCF Done:  E(RPM3) = -0.118474705620     A.U. after   10 cycles
 SCF Done:  E(RPM3) = -0.118477942010     A.U. after   10 cycles
 SCF Done:  E(RPM3) = -0.118479144001     A.U. after   10 cycles
 SCF Done:  E(RPM3) = -0.118481643156     A.U. after    9 cycles
 SCF Done:  E(RPM3) = -0.118483152537     A.U. after   10 cycles
 SCF Done:  E(RPM3) = -0.118483324188     A.U. after    9 cycles
 SCF Done:  E(RPM3) = -0.118483414564     A.U. after    9 cycles
 Optimization completed.
    -- Stationary point found.

                         Standard orientation:
 ---------------------------------------------------------------------
 Center     Atomic      Atomic             Coordinates (Angstroms)
 Number     Number       Type             X           Y           Z
 ---------------------------------------------------------------------
      1          6           0        2.119974   -0.916345    0.189289
      2          1           0        2.224068   -0.999167    1.278985
      3          1           0        3.121029   -1.016150   -0.247007
      4          1           0        1.516180   -1.775914   -0.148722
      5          6           0        1.466193    0.385787   -0.216232
      6          1           0        1.511314    0.510521   -1.316558
      7          1           0        2.029791    1.242233    0.203876
      8          6           0        0.004203    0.437937    0.254671
      9          1           0       -0.038474    0.249067    1.356867
     10          8           0       -0.447505    1.758379    0.012262
     11          6           0       -0.841015   -0.615547   -0.482175
     12          1           0       -1.382633    1.755521    0.171235
     13          1           0       -0.986740   -0.316919   -1.539157
     14          1           0       -0.252910   -1.561071   -0.513906
     15          6           0       -2.175771   -0.856136    0.183846
     16          1           0       -2.800051    0.048386    0.195702
     17          1           0       -2.058005   -1.183928    1.225599
     18          1           0       -2.745040   -1.633779   -0.341410
 ---------------------------------------------------------------------

 The electronic state is 1-A.
 Alpha  occ. eigenvalues --   -1.48810  -1.26195  -1.19653  -0.93582  -0.82942
 Alpha  occ. eigenvalues --   -0.74489  -0.64718  -0.61271  -0.58736  -0.55700
 Alpha  occ. eigenvalues --   -0.53073  -0.51102  -0.49600  -0.48758  -0.47704
 Alpha  occ. eigenvalues --   -0.44358  -0.43967  -0.42575  -0.40114
 Alpha virt. eigenvalues --    0.11616   0.12649   0.13073   0.13453   0.13608
 Alpha virt. eigenvalues --    0.14649   0.14722   0.15278   0.15381   0.15724
 Alpha virt. eigenvalues --    0.16727   0.16976   0.17437   0.17845   0.18508

 Mulliken charges:
               1
     1  C   -0.114777
     2  H    0.038737
     3  H    0.041264
     4  H    0.041689
     5  C   -0.111977
     6  H    0.058464
     7  H    0.064049
     8  C    0.079189
     9  H    0.043487
    10  O   -0.313575
    11  C   -0.156092
    12  H    0.188203
    13  H    0.064978
    14  H    0.068815
    15  C   -0.106921
    16  H    0.032793
    17  H    0.039970
    18  H    0.041703
 Sum of Mulliken charges =  -0.00000

 Dipole moment (field-independent basis, Debye):
    X=             -0.7660    Y=             -1.3377    Z=              0.3213  Tot=              1.5746
 N-N= 1.705285601787D+02 E-N=-2.554477449544D+02  KE=-5.969942207456D+01
 Leave Link  601 at Wed Sep  7 15:36:40 2022, MaxMem=   131072000 cpu:               0.0 elap:               0.0
 (Enter /opt/g16/l9999.exe)
 1\1\GINC-TOTEM2\FOpt\RPM3\ZDO\C5H12O1\JRAMOS\07-Sep-2022\0\\#p opt pm3
 \\Conformer number 024. Energy MM = 0.000 kcal/mol\\0,1\C,5.7459107695
 ,3.07108989,2.4654499297\H,6.4550410748,2.5667840833,3.1347345274\H,5.
 4607803867,4.0181860508,2.9388802133\H,6.2866463209,3.3080057371,1.533
 1659061\C,4.5364739109,2.2105343283,2.175394435\H,3.7724506042,2.79637
 01406,1.626418242\H,4.0516055231,1.9028283112,3.1229460457\C,4.9273368
 516,0.9688381021,1.3585103841\H,5.7431082651,0.4162618614,1.8890801301

 Normal termination of Gaussian 16 at Wed Sep  7 15:36:40 2022.
