 Gaussian 16, Revision A.03,
 Gaussian 16:  ES64L-G16RevA.03 25-Dec-2016

 ----------
 #p opt pm3
 ----------

 ------------------------------------------------
 Conformer number 017. Energy MM = 0.000 kcal/mol
 ------------------------------------------------
 Symbolic Z-matrix:
 Charge =  0 Multiplicity = 1

 SCF Done:  E(RPM3) = -0.845065272752E-01 A.U. after   13 cycles
 SCF Done:  E(RPM3) = -0.109960072378     A.U. after   12 cycles
 SCF Done:  E(RPM3) = -0.116127217478     A.U. after   12 cycles
 SCF Done:  E(RPM3) = -0.116766191926     A.U. after   11 cycles
 SCF Done:  E(RPM3) = -0.116969582087     A.U. after   11 cycles
 SCF Done:  E(RPM3) = -0.117076673562     A.U. after   11 cycles
 SCF Done:  E(RPM3) = -0.117081772929     A.U. after   11 cycles
 SCF Done:  E(RPM3) = -0.117121929818     A.U. after   10 cycles
 SCF Done:  E(RPM3) = -0.117221091186     A.U. after   12 cycles
 SCF Done:  E(RPM3) = -0.117246131672     A.U. after   11 cycles
 SCF Done:  E(RPM3) = -0.117330350091     A.U. after   12 cycles
 SCF Done:  E(RPM3) = -0.117655648235     A.U. after   11 cycles
 SCF Done:  E(RPM3) = -0.117384217491     A.U. after   12 cycles
 SCF Done:  E(RPM3) = -0.117660737790     A.U. after   10 cycles
 SCF Done:  E(RPM3) = -0.117663226232     A.U. after   10 cycles
 SCF Done:  E(RPM3) = -0.117664208856     A.U. after   10 cycles
 SCF Done:  E(RPM3) = -0.117665582441     A.U. after   10 cycles
 SCF Done:  E(RPM3) = -0.117666474660     A.U. after    9 cycles
 SCF Done:  E(RPM3) = -0.117666720633     A.U. after    9 cycles
 SCF Done:  E(RPM3) = -0.117666788014     A.U. after    9 cycles
 Optimization completed.
    -- Stationary point found.

                         Standard orientation:
 ---------------------------------------------------------------------
 Center     Atomic      Atomic             Coordinates (Angstroms)
 Number     Number       Type             X           Y           Z
 ---------------------------------------------------------------------
      1          6           0        2.533451   -0.082745    0.338399
      2          1           0        2.499447   -0.248153    1.423703
      3          1           0        2.667832    0.994705    0.176433
      4          1           0        3.431408   -0.586377   -0.042143
      5          6           0        1.288673   -0.600672   -0.345889
      6          1           0        1.207397   -1.695518   -0.193598
      7          1           0        1.368510   -0.454038   -1.441561
      8          6           0        0.013263    0.070266    0.183555
      9          1           0        0.046914    0.118943    1.300904
     10          8           0       -0.001422    1.399639   -0.308041
     11          6           0       -1.233366   -0.719821   -0.255201
     12          1           0       -0.891936    1.715046   -0.187267
     13          1           0       -1.284036   -0.758225   -1.361628
     14          1           0       -1.137377   -1.771200    0.078434
     15          6           0       -2.500496   -0.112648    0.304837
     16          1           0       -2.551620   -0.211523    1.397169
     17          1           0       -3.394956   -0.590720   -0.112385
     18          1           0       -2.559351    0.963664    0.072055
 ---------------------------------------------------------------------

 The electronic state is 1-A.
 Alpha  occ. eigenvalues --   -1.48625  -1.24038  -1.21329  -0.95409  -0.79117
 Alpha  occ. eigenvalues --   -0.76033  -0.65827  -0.61758  -0.56451  -0.55599
 Alpha  occ. eigenvalues --   -0.53679  -0.51709  -0.49722  -0.48173  -0.47035
 Alpha  occ. eigenvalues --   -0.44414  -0.43791  -0.42903  -0.40139
 Alpha virt. eigenvalues --    0.11495   0.12630   0.12926   0.13654   0.13780
 Alpha virt. eigenvalues --    0.14522   0.14728   0.15174   0.15567   0.15889
 Alpha virt. eigenvalues --    0.16802   0.17076   0.17338   0.18400   0.18570

 Mulliken charges:
               1
     1  C   -0.106974
     2  H    0.034478
     3  H    0.050867
     4  H    0.034951
     5  C   -0.105387
     6  H    0.048523
     7  H    0.061241
     8  C    0.077026
     9  H    0.045052
    10  O   -0.317174
    11  C   -0.145557
    12  H    0.191135
    13  H    0.062298
    14  H    0.060684
    15  C   -0.110463
    16  H    0.041155
    17  H    0.044558
    18  H    0.033587
 Sum of Mulliken charges =   0.00000

 Dipole moment (field-independent basis, Debye):
    X=             -1.2459    Y=             -0.8615    Z=              0.5063  Tot=              1.5971
 N-N= 1.700407236594D+02 E-N=-2.545145431635D+02  KE=-5.968721102008D+01
 Leave Link  601 at Wed Sep  7 15:35:35 2022, MaxMem=   131072000 cpu:               0.0 elap:               0.0
 (Enter /opt/g16/l9999.exe)
 1\1\GINC-TOTEM2\FOpt\RPM3\ZDO\C5H12O1\JRAMOS\07-Sep-2022\0\\#p opt pm3
 \\Conformer number 017. Energy MM = 0.000 kcal/mol\\0,1\C,15.185949125
 3,10.7833271538,5.3618684784\H,14.9655695765,10.7143251918,4.288056826
 8\H,16.122167888,10.2379665582,5.5386948594\H,15.3734903779,11.8402772
 545,5.5909314309\C,14.0532490792,10.2379076383,6.2017952019\H,13.13698
 11215,10.8363409601,6.026244517\H,14.2880372724,10.3553273652,7.278577
 9619\C,13.7528776248,8.7657934011,5.8858898769\H,13.7397745868,8.61138

 Normal termination of Gaussian 16 at Wed Sep  7 15:35:35 2022.
