 Gaussian 16, Revision A.03,
 Gaussian 16:  ES64L-G16RevA.03 25-Dec-2016

 ----------
 #p opt pm3
 ----------

 ------------------------------------------------
 Conformer number 023. Energy MM = 0.000 kcal/mol
 ------------------------------------------------
 Symbolic Z-matrix:
 Charge =  0 Multiplicity = 1

 SCF Done:  E(RPM3) = -0.865525330625E-01 A.U. after   12 cycles
 SCF Done:  E(RPM3) = -0.108898029122     A.U. after   11 cycles
 SCF Done:  E(RPM3) = -0.114590021760     A.U. after   12 cycles
 SCF Done:  E(RPM3) = -0.115246026747     A.U. after   11 cycles
 SCF Done:  E(RPM3) = -0.115718343282     A.U. after   11 cycles
 SCF Done:  E(RPM3) = -0.116336057502     A.U. after   12 cycles
 SCF Done:  E(RPM3) = -0.116641110595     A.U. after   11 cycles
 SCF Done:  E(RPM3) = -0.116994994265     A.U. after   11 cycles
 SCF Done:  E(RPM3) = -0.117138663627     A.U. after   12 cycles
 SCF Done:  E(RPM3) = -0.117152700572     A.U. after   11 cycles
 SCF Done:  E(RPM3) = -0.117567390097     A.U. after    9 cycles
 SCF Done:  E(RPM3) = -0.107241426296     A.U. after   12 cycles
 SCF Done:  E(RPM3) = -0.117628531804     A.U. after   11 cycles
 SCF Done:  E(RPM3) = -0.117660290039     A.U. after   11 cycles
 SCF Done:  E(RPM3) = -0.117664525015     A.U. after   10 cycles
 SCF Done:  E(RPM3) = -0.117665872713     A.U. after   10 cycles
 SCF Done:  E(RPM3) = -0.117666404960     A.U. after   10 cycles
 SCF Done:  E(RPM3) = -0.117666683190     A.U. after    9 cycles
 SCF Done:  E(RPM3) = -0.117666736983     A.U. after    9 cycles
 SCF Done:  E(RPM3) = -0.117666780900     A.U. after    9 cycles
 Optimization completed.
    -- Stationary point found.

                         Standard orientation:
 ---------------------------------------------------------------------
 Center     Atomic      Atomic             Coordinates (Angstroms)
 Number     Number       Type             X           Y           Z
 ---------------------------------------------------------------------
      1          6           0        2.500491   -0.112982    0.305126
      2          1           0        3.394978   -0.590123   -0.113090
      3          1           0        2.552003   -0.213521    1.397277
      4          1           0        2.558960    0.963717    0.073994
      5          6           0        1.233366   -0.719654   -0.255454
      6          1           0        1.137111   -1.771194    0.077597
      7          1           0        1.284268   -0.757583   -1.361889
      8          6           0       -0.013299    0.070402    0.183369
      9          1           0       -0.046953    0.119046    1.300712
     10          8           0        0.001474    1.399804   -0.308131
     11          6           0       -1.288703   -0.600390   -0.346195
     12          1           0        0.891794    1.715342   -0.186316
     13          1           0       -1.368823   -0.453070   -1.441760
     14          1           0       -1.207241   -1.695340   -0.194658
     15          6           0       -2.533417   -0.083095    0.338754
     16          1           0       -3.431488   -0.585969   -0.042533
     17          1           0       -2.667527    0.994614    0.178287
     18          1           0       -2.499501   -0.250037    1.423827
 ---------------------------------------------------------------------

 The electronic state is 1-A.
 Alpha  occ. eigenvalues --   -1.48625  -1.24039  -1.21329  -0.95408  -0.79118
 Alpha  occ. eigenvalues --   -0.76033  -0.65828  -0.61755  -0.56449  -0.55600
 Alpha  occ. eigenvalues --   -0.53681  -0.51710  -0.49721  -0.48172  -0.47037
 Alpha  occ. eigenvalues --   -0.44413  -0.43792  -0.42903  -0.40140
 Alpha virt. eigenvalues --    0.11494   0.12631   0.12926   0.13655   0.13781
 Alpha virt. eigenvalues --    0.14522   0.14728   0.15174   0.15566   0.15889
 Alpha virt. eigenvalues --    0.16802   0.17077   0.17338   0.18400   0.18570

 Mulliken charges:
               1
     1  C   -0.110441
     2  H    0.044553
     3  H    0.041144
     4  H    0.033579
     5  C   -0.145558
     6  H    0.060677
     7  H    0.062297
     8  C    0.077022
     9  H    0.045040
    10  O   -0.317151
    11  C   -0.105384
    12  H    0.191121
    13  H    0.061258
    14  H    0.048529
    15  C   -0.106978
    16  H    0.034960
    17  H    0.050866
    18  H    0.034468
 Sum of Mulliken charges =   0.00000

 Dipole moment (field-independent basis, Debye):
    X=              1.2452    Y=             -0.8612    Z=              0.5075  Tot=              1.5968
 N-N= 1.700394172813D+02 E-N=-2.545119970280D+02  KE=-5.968713826464D+01
 Leave Link  601 at Wed Sep  7 15:36:39 2022, MaxMem=   131072000 cpu:               0.0 elap:               0.0
 (Enter /opt/g16/l9999.exe)
 1\1\GINC-TOTEM2\FOpt\RPM3\ZDO\C5H12O1\JRAMOS\07-Sep-2022\0\\#p opt pm3
 \\Conformer number 023. Energy MM = 0.000 kcal/mol\\0,1\C,3.9801431738
 ,4.7534410599,6.3043439679\H,4.5701949255,5.5381539126,6.7929533846\H,
 4.6786787845,4.1064537582,5.7575259355\H,3.520876438,4.1400978031,7.09
 74425849\C,2.9249682049,5.3382524906,5.3919245428\H,3.4058501696,5.858
 6019346,4.541094291\H,2.342075679,6.1132492115,5.9284377359\C,1.977063
 8059,4.2503489401,4.8544588612\H,2.5753517074,3.4634289819,4.330279865

 Normal termination of Gaussian 16 at Wed Sep  7 15:36:39 2022.
