 Gaussian 16, Revision A.03,
 Gaussian 16:  ES64L-G16RevA.03 25-Dec-2016

 ----------
 #p opt pm3
 ----------

 ------------------------------------------------
 Conformer number 012. Energy MM = 0.000 kcal/mol
 ------------------------------------------------
 Symbolic Z-matrix:
 Charge =  0 Multiplicity = 1

 SCF Done:  E(RPM3) = -0.853255801870E-01 A.U. after   13 cycles
 SCF Done:  E(RPM3) = -0.108494492725     A.U. after   12 cycles
 SCF Done:  E(RPM3) = -0.114042055993     A.U. after   12 cycles
 SCF Done:  E(RPM3) = -0.114880243954     A.U. after   11 cycles
 SCF Done:  E(RPM3) = -0.115472600154     A.U. after   12 cycles
 SCF Done:  E(RPM3) = -0.116281427748     A.U. after   12 cycles
 SCF Done:  E(RPM3) = -0.116826615518     A.U. after   12 cycles
 SCF Done:  E(RPM3) = -0.117553127368     A.U. after   12 cycles
 SCF Done:  E(RPM3) = -0.117759577562     A.U. after   11 cycles
 SCF Done:  E(RPM3) = -0.118133725049     A.U. after   12 cycles
 SCF Done:  E(RPM3) = -0.118362299324     A.U. after   11 cycles
 SCF Done:  E(RPM3) = -0.118384371138     A.U. after   12 cycles
 SCF Done:  E(RPM3) = -0.118449844517     A.U. after   10 cycles
 SCF Done:  E(RPM3) = -0.118470740699     A.U. after   11 cycles
 SCF Done:  E(RPM3) = -0.118480863274     A.U. after   11 cycles
 SCF Done:  E(RPM3) = -0.118482062755     A.U. after   10 cycles
 SCF Done:  E(RPM3) = -0.118481097215     A.U. after   10 cycles
 SCF Done:  E(RPM3) = -0.118482969862     A.U. after   10 cycles
 SCF Done:  E(RPM3) = -0.118483479564     A.U. after   10 cycles
 Optimization completed.
    -- Stationary point found.

                         Standard orientation:
 ---------------------------------------------------------------------
 Center     Atomic      Atomic             Coordinates (Angstroms)
 Number     Number       Type             X           Y           Z
 ---------------------------------------------------------------------
      1          6           0        2.121198   -0.914979    0.189326
      2          1           0        1.517846   -1.775259   -0.147598
      3          1           0        2.226092   -0.996945    1.279041
      4          1           0        3.122072   -1.014308   -0.247445
      5          6           0        1.466123    0.386387   -0.216658
      6          1           0        1.510654    0.510608   -1.317075
      7          1           0        2.029143    1.243527    0.202800
      8          6           0        0.004262    0.437529    0.254857
      9          1           0       -0.037728    0.249248    1.357192
     10          8           0       -0.448836    1.757346    0.011922
     11          6           0       -0.840288   -0.617252   -0.480980
     12          1           0       -1.384109    1.753293    0.170263
     13          1           0       -0.983839   -0.321042   -1.538939
     14          1           0       -0.252602   -1.563138   -0.509464
     15          6           0       -2.176425   -0.855146    0.183288
     16          1           0       -2.060682   -1.182426    1.225425
     17          1           0       -2.746372   -1.632148   -0.342198
     18          1           0       -2.799001    0.050590    0.193623
 ---------------------------------------------------------------------

 The electronic state is 1-A.
 Alpha  occ. eigenvalues --   -1.48813  -1.26191  -1.19653  -0.93584  -0.82943
 Alpha  occ. eigenvalues --   -0.74487  -0.64718  -0.61276  -0.58735  -0.55704
 Alpha  occ. eigenvalues --   -0.53070  -0.51098  -0.49601  -0.48761  -0.47705
 Alpha  occ. eigenvalues --   -0.44363  -0.43969  -0.42571  -0.40113
 Alpha virt. eigenvalues --    0.11615   0.12647   0.13071   0.13454   0.13607
 Alpha virt. eigenvalues --    0.14647   0.14721   0.15276   0.15381   0.15724
 Alpha virt. eigenvalues --    0.16727   0.16973   0.17437   0.17845   0.18506

 Mulliken charges:
               1
     1  C   -0.114776
     2  H    0.041687
     3  H    0.038725
     4  H    0.041265
     5  C   -0.111972
     6  H    0.058465
     7  H    0.064044
     8  C    0.079173
     9  H    0.043476
    10  O   -0.313596
    11  C   -0.156071
    12  H    0.188239
    13  H    0.064956
    14  H    0.068802
    15  C   -0.106910
    16  H    0.039967
    17  H    0.041732
    18  H    0.032793
 Sum of Mulliken charges =   0.00000

 Dipole moment (field-independent basis, Debye):
    X=             -0.7653    Y=             -1.3388    Z=              0.3211  Tot=              1.5752
 N-N= 1.705304639768D+02 E-N=-2.554514132216D+02  KE=-5.969943483200D+01
 Leave Link  601 at Wed Sep  7 15:34:45 2022, MaxMem=   131072000 cpu:               0.0 elap:               0.0
 (Enter /opt/g16/l9999.exe)
 1\1\GINC-TOTEM2\FOpt\RPM3\ZDO\C5H12O1\JRAMOS\07-Sep-2022\0\\#p opt pm3
 \\Conformer number 012. Energy MM = 0.000 kcal/mol\\0,1\C,5.8978437801
 ,14.8722048059,10.5256687923\H,5.8456978231,14.4688928232,11.551462555
 9\H,5.1947772659,14.2942187744,9.9118059918\H,5.5388269413,15.90794550
 9,10.5527074768\C,7.3106216693,14.7892197937,9.9921206361\H,7.96733539
 86,15.4978430338,10.535178482\H,7.337205863,15.1110831685,8.9322513749
 \C,7.8649107015,13.3615948243,10.1210749524\H,7.1643173265,12.64435235

 Normal termination of Gaussian 16 at Wed Sep  7 15:34:45 2022.
