 Gaussian 16, Revision A.03,
 Gaussian 16:  ES64L-G16RevA.03 25-Dec-2016

 ----------
 #p opt pm3
 ----------

 ------------------------------------------------
 Conformer number 005. Energy MM = 0.000 kcal/mol
 ------------------------------------------------
 Symbolic Z-matrix:
 Charge =  0 Multiplicity = 1

 SCF Done:  E(RPM3) = -0.814560424354E-01 A.U. after   13 cycles
 SCF Done:  E(RPM3) = -0.108204818622     A.U. after   11 cycles
 SCF Done:  E(RPM3) = -0.115971888142     A.U. after   12 cycles
 SCF Done:  E(RPM3) = -0.117135493118     A.U. after   11 cycles
 SCF Done:  E(RPM3) = -0.117723624259     A.U. after   11 cycles
 SCF Done:  E(RPM3) = -0.118374703829     A.U. after   12 cycles
 SCF Done:  E(RPM3) = -0.118647472281     A.U. after   11 cycles
 SCF Done:  E(RPM3) = -0.119073471482     A.U. after   11 cycles
 SCF Done:  E(RPM3) = -0.119195443204     A.U. after   11 cycles
 SCF Done:  E(RPM3) = -0.119224406920     A.U. after   11 cycles
 SCF Done:  E(RPM3) = -0.119225286900     A.U. after   10 cycles
 SCF Done:  E(RPM3) = -0.119222689145     A.U. after   11 cycles
 SCF Done:  E(RPM3) = -0.119230118087     A.U. after   10 cycles
 SCF Done:  E(RPM3) = -0.119230799471     A.U. after    9 cycles
 SCF Done:  E(RPM3) = -0.119231073863     A.U. after   10 cycles
 SCF Done:  E(RPM3) = -0.119231127068     A.U. after    9 cycles
 SCF Done:  E(RPM3) = -0.119231160520     A.U. after    8 cycles
 SCF Done:  E(RPM3) = -0.119231192779     A.U. after    9 cycles
 Optimization completed.
    -- Stationary point found.

                         Standard orientation:
 ---------------------------------------------------------------------
 Center     Atomic      Atomic             Coordinates (Angstroms)
 Number     Number       Type             X           Y           Z
 ---------------------------------------------------------------------
      1          6           0        2.415636   -0.377265   -0.051847
      2          1           0        3.036133   -1.166269   -0.495778
      3          1           0        2.738842   -0.252697    0.990412
      4          1           0        2.645604    0.558609   -0.578127
      5          6           0        0.946688   -0.721531   -0.143147
      6          1           0        0.750024   -1.674886    0.385943
      7          1           0        0.667953   -0.904500   -1.201115
      8          6           0        0.056619    0.377507    0.461968
      9          1           0        0.500073    0.737761    1.420129
     10          8           0        0.067345    1.558975   -0.305540
     11          6           0       -1.371750   -0.130829    0.727209
     12          1           0       -0.319480    1.351146   -1.148129
     13          1           0       -1.320180   -0.958217    1.462123
     14          1           0       -1.953490    0.673028    1.221090
     15          6           0       -2.106983   -0.594067   -0.510120
     16          1           0       -2.198917    0.203821   -1.260190
     17          1           0       -3.124970   -0.921492   -0.261909
     18          1           0       -1.601610   -1.440986   -0.994497
 ---------------------------------------------------------------------

 The electronic state is 1-A.
 Alpha  occ. eigenvalues --   -1.49052  -1.24571  -1.20144  -0.95180  -0.83291
 Alpha  occ. eigenvalues --   -0.74754  -0.63346  -0.61219  -0.58374  -0.56643
 Alpha  occ. eigenvalues --   -0.53646  -0.51353  -0.49803  -0.47819  -0.47206
 Alpha  occ. eigenvalues --   -0.44621  -0.43630  -0.42950  -0.40699
 Alpha virt. eigenvalues --    0.11507   0.12825   0.13072   0.13547   0.13963
 Alpha virt. eigenvalues --    0.14134   0.14685   0.14928   0.15516   0.15969
 Alpha virt. eigenvalues --    0.16912   0.17142   0.17303   0.17617   0.18326

 Mulliken charges:
               1
     1  C   -0.106920
     2  H    0.035889
     3  H    0.038895
     4  H    0.048267
     5  C   -0.133196
     6  H    0.056008
     7  H    0.052214
     8  C    0.073751
     9  H    0.070515
    10  O   -0.307930
    11  C   -0.135228
    12  H    0.184057
    13  H    0.056235
    14  H    0.061003
    15  C   -0.112180
    16  H    0.036194
    17  H    0.042109
    18  H    0.040317
 Sum of Mulliken charges =  -0.00000

 Dipole moment (field-independent basis, Debye):
    X=             -0.5511    Y=             -1.4056    Z=             -0.3711  Tot=              1.5547
 N-N= 1.711165553572D+02 E-N=-2.566114950145D+02  KE=-5.969409628967D+01
 Leave Link  601 at Wed Sep  7 15:33:41 2022, MaxMem=   131072000 cpu:               0.0 elap:               0.0
 (Enter /opt/g16/l9999.exe)
 1\1\GINC-TOTEM2\FOpt\RPM3\ZDO\C5H12O1\JRAMOS\07-Sep-2022\0\\#p opt pm3
 \\Conformer number 005. Energy MM = 0.000 kcal/mol\\0,1\C,3.6179348216
 ,5.3386251968,9.6675647762\H,3.8075555601,4.2830561177,9.4342469923\H,
 2.9960184423,5.7469435736,8.8596174554\H,3.0190893772,5.3707571765,10.
 5873840921\C,4.9117062274,6.1056017253,9.8177832222\H,5.4970046377,6.0
 437412499,8.8791152305\H,5.543558373,5.6294035533,10.595256288\C,4.669
 9287412,7.586136534,10.1581256802\H,3.8381929374,7.98672684,9.53182650

 Normal termination of Gaussian 16 at Wed Sep  7 15:33:41 2022.
