 Gaussian 16, Revision A.03,
 Gaussian 16:  ES64L-G16RevA.03 25-Dec-2016

 ----------
 #p opt pm3
 ----------

 ------------------------------------------------
 Conformer number 000. Energy MM = 0.000 kcal/mol
 ------------------------------------------------
 Symbolic Z-matrix:
 Charge =  0 Multiplicity = 1

 SCF Done:  E(RPM3) = -0.864400920967E-01 A.U. after   12 cycles
 SCF Done:  E(RPM3) = -0.112264204087     A.U. after   11 cycles
 SCF Done:  E(RPM3) = -0.118211949776     A.U. after   12 cycles
 SCF Done:  E(RPM3) = -0.119074320424     A.U. after   11 cycles
 SCF Done:  E(RPM3) = -0.119473698219     A.U. after   11 cycles
 SCF Done:  E(RPM3) = -0.119657247277     A.U. after   11 cycles
 SCF Done:  E(RPM3) = -0.119679583239     A.U. after   10 cycles
 SCF Done:  E(RPM3) = -0.119688654782     A.U. after   10 cycles
 SCF Done:  E(RPM3) = -0.119690933844     A.U. after   10 cycles
 SCF Done:  E(RPM3) = -0.119692741414     A.U. after    9 cycles
 SCF Done:  E(RPM3) = -0.119693230816     A.U. after    9 cycles
 SCF Done:  E(RPM3) = -0.119693697978     A.U. after   10 cycles
 SCF Done:  E(RPM3) = -0.119693906910     A.U. after   10 cycles
 Optimization completed.
    -- Stationary point found.

                         Standard orientation:
 ---------------------------------------------------------------------
 Center     Atomic      Atomic             Coordinates (Angstroms)
 Number     Number       Type             X           Y           Z
 ---------------------------------------------------------------------
      1          6           0        2.521967   -0.109339    0.322772
      2          1           0        3.408072   -0.648472   -0.035965
      3          1           0        2.501421   -0.200615    1.417009
      4          1           0        2.665427    0.953708    0.087729
      5          6           0        1.259779   -0.655021   -0.304075
      6          1           0        1.162803   -1.733148   -0.067627
      7          1           0        1.327370   -0.596799   -1.409314
      8          6           0        0.000030    0.080292    0.186238
      9          1           0        0.000126    0.154328    1.298515
     10          8           0       -0.000191    1.439579   -0.186302
     11          6           0       -1.259657   -0.655317   -0.303762
     12          1           0       -0.000271    1.473028   -1.135183
     13          1           0       -1.327062   -0.597800   -1.409050
     14          1           0       -1.162632   -1.733297   -0.066695
     15          6           0       -2.521921   -0.109342    0.322655
     16          1           0       -2.501484   -0.200080    1.416933
     17          1           0       -3.408014   -0.648677   -0.035872
     18          1           0       -2.665410    0.953550    0.086964
 ---------------------------------------------------------------------

 The electronic state is 1-A.
 Alpha  occ. eigenvalues --   -1.48603  -1.24177  -1.21241  -0.94875  -0.78947
 Alpha  occ. eigenvalues --   -0.78588  -0.62883  -0.61512  -0.59183  -0.55241
 Alpha  occ. eigenvalues --   -0.53178  -0.51802  -0.48670  -0.48489  -0.46942
 Alpha  occ. eigenvalues --   -0.44127  -0.43608  -0.43402  -0.40750
 Alpha virt. eigenvalues --    0.11336   0.12738   0.13405   0.13924   0.14084
 Alpha virt. eigenvalues --    0.14275   0.14686   0.15319   0.15746   0.16148
 Alpha virt. eigenvalues --    0.17204   0.17295   0.17465   0.17617   0.18357

 Mulliken charges:
               1
     1  C   -0.107024
     2  H    0.036080
     3  H    0.040084
     4  H    0.047946
     5  C   -0.132966
     6  H    0.055692
     7  H    0.048965
     8  C    0.070301
     9  H    0.075494
    10  O   -0.304933
    11  C   -0.132973
    12  H    0.181589
    13  H    0.048960
    14  H    0.055685
    15  C   -0.107011
    16  H    0.040091
    17  H    0.036074
    18  H    0.047946
 Sum of Mulliken charges =  -0.00000

 Dipole moment (field-independent basis, Debye):
    X=              0.0001    Y=             -1.1958    Z=             -0.8677  Tot=              1.4774
 N-N= 1.698615404800D+02 E-N=-2.541550222813D+02  KE=-5.968309786264D+01
 Leave Link  601 at Wed Sep  7 15:33:24 2022, MaxMem=   131072000 cpu:               0.0 elap:               0.0
 (Enter /opt/g16/l9999.exe)
 1\1\GINC-TOTEM2\FOpt\RPM3\ZDO\C5H12O1\JRAMOS\07-Sep-2022\0\\#p opt pm3
 \\Conformer number 000. Energy MM = 0.000 kcal/mol\\0,1\C,13.261327737
 8,10.6035326016,11.9058722407\H,12.9223962396,9.7046095804,11.37521119
 79\H,14.0177695576,10.2887891529,12.6372009411\H,13.7653800907,11.2481
 488542,11.1735499625\C,12.1052279492,11.3126495954,12.5725132766\H,11.
 6064292237,10.6244479385,13.2833219135\H,11.3341376049,11.5748058261,1
 1.8200472475\C,12.5536538346,12.5752694952,13.3293259469\H,13.42876940

 Normal termination of Gaussian 16 at Wed Sep  7 15:33:24 2022.
