 Gaussian 16, Revision A.03,
 Gaussian 16:  ES64L-G16RevA.03 25-Dec-2016

 ----------
 #p opt pm3
 ----------

 ------------------------------------------------
 Conformer number 009. Energy MM = 0.000 kcal/mol
 ------------------------------------------------
 Symbolic Z-matrix:
 Charge =  0 Multiplicity = 1

 SCF Done:  E(RPM3) = -0.811101432446E-01 A.U. after   12 cycles
 SCF Done:  E(RPM3) = -0.107474535779     A.U. after   12 cycles
 SCF Done:  E(RPM3) = -0.114039312698     A.U. after   12 cycles
 SCF Done:  E(RPM3) = -0.114824260255     A.U. after   11 cycles
 SCF Done:  E(RPM3) = -0.115387579346     A.U. after   12 cycles
 SCF Done:  E(RPM3) = -0.116036399416     A.U. after   12 cycles
 SCF Done:  E(RPM3) = -0.116469887881     A.U. after   12 cycles
 SCF Done:  E(RPM3) = -0.116967614163     A.U. after   12 cycles
 SCF Done:  E(RPM3) = -0.117066607596     A.U. after   11 cycles
 SCF Done:  E(RPM3) = -0.117167142701     A.U. after   12 cycles
 SCF Done:  E(RPM3) = -0.117646489831     A.U. after    7 cycles
 SCF Done:  E(RPM3) = -0.117663250480     A.U. after   10 cycles
 SCF Done:  E(RPM3) = -0.117421351332     A.U. after   12 cycles
 SCF Done:  E(RPM3) = -0.117598620791     A.U. after   12 cycles
 SCF Done:  E(RPM3) = -0.117656189327     A.U. after   11 cycles
 SCF Done:  E(RPM3) = -0.117662440385     A.U. after   10 cycles
 SCF Done:  E(RPM3) = -0.117663355192     A.U. after    9 cycles
 SCF Done:  E(RPM3) = -0.117665503688     A.U. after   10 cycles
 SCF Done:  E(RPM3) = -0.117666282620     A.U. after    9 cycles
 SCF Done:  E(RPM3) = -0.117666792694     A.U. after    9 cycles
 Optimization completed.
    -- Stationary point found.

                         Standard orientation:
 ---------------------------------------------------------------------
 Center     Atomic      Atomic             Coordinates (Angstroms)
 Number     Number       Type             X           Y           Z
 ---------------------------------------------------------------------
      1          6           0        2.500519   -0.112579    0.304937
      2          1           0        3.395090   -0.590255   -0.112516
      3          1           0        2.551662   -0.211893    1.397197
      4          1           0        2.559189    0.963842    0.072582
      5          6           0        1.233457   -0.719742   -0.255330
      6          1           0        1.137408   -1.771177    0.078074
      7          1           0        1.284232   -0.757980   -1.361742
      8          6           0       -0.013250    0.070227    0.183546
      9          1           0       -0.046797    0.118962    1.300919
     10          8           0        0.001313    1.399503   -0.308266
     11          6           0       -1.288638   -0.600769   -0.345780
     12          1           0        0.891539    1.715240   -0.186387
     13          1           0       -1.368456   -0.454320   -1.441483
     14          1           0       -1.207378   -1.695576   -0.193263
     15          6           0       -2.533471   -0.082685    0.338421
     16          1           0       -2.499511   -0.248037    1.423734
     17          1           0       -3.431428   -0.586306   -0.042120
     18          1           0       -2.667760    0.994766    0.176367
 ---------------------------------------------------------------------

 The electronic state is 1-A.
 Alpha  occ. eigenvalues --   -1.48625  -1.24038  -1.21328  -0.95409  -0.79118
 Alpha  occ. eigenvalues --   -0.76032  -0.65830  -0.61755  -0.56448  -0.55601
 Alpha  occ. eigenvalues --   -0.53679  -0.51710  -0.49721  -0.48171  -0.47036
 Alpha  occ. eigenvalues --   -0.44414  -0.43791  -0.42904  -0.40140
 Alpha virt. eigenvalues --    0.11495   0.12632   0.12926   0.13655   0.13780
 Alpha virt. eigenvalues --    0.14522   0.14728   0.15174   0.15567   0.15889
 Alpha virt. eigenvalues --    0.16802   0.17077   0.17338   0.18400   0.18570

 Mulliken charges:
               1
     1  C   -0.110454
     2  H    0.044555
     3  H    0.041146
     4  H    0.033582
     5  C   -0.145553
     6  H    0.060671
     7  H    0.062308
     8  C    0.077012
     9  H    0.045042
    10  O   -0.317141
    11  C   -0.105385
    12  H    0.191117
    13  H    0.061250
    14  H    0.048524
    15  C   -0.106970
    16  H    0.034471
    17  H    0.034954
    18  H    0.050870
 Sum of Mulliken charges =   0.00000

 Dipole moment (field-independent basis, Debye):
    X=              1.2453    Y=             -0.8607    Z=              0.5079  Tot=              1.5968
 N-N= 1.700407719301D+02 E-N=-2.545147459205D+02  KE=-5.968713700410D+01
 Leave Link  601 at Wed Sep  7 15:34:05 2022, MaxMem=   131072000 cpu:               0.0 elap:               0.0
 (Enter /opt/g16/l9999.exe)
 1\1\GINC-TOTEM2\FOpt\RPM3\ZDO\C5H12O1\JRAMOS\07-Sep-2022\0\\#p opt pm3
 \\Conformer number 009. Energy MM = 0.000 kcal/mol\\0,1\C,12.200488425
 1,-1.711325103,9.0593222199\H,13.0705519542,-2.3678190495,8.938068414\
 H,11.7586593777,-1.5607397129,8.0655309218\H,11.4572104967,-2.25322819
 13,9.6675932509\C,12.5803381519,-0.399482629,9.7095342676\H,13.2419595
 97,0.1795228305,9.0365488405\H,13.1724685211,-0.5848814798,10.62779112
 41\C,11.3371109089,0.4425452461,10.0505909564\H,10.7363441703,0.609628

 Normal termination of Gaussian 16 at Wed Sep  7 15:34:05 2022.
