 Gaussian 16, Revision A.03,
 Gaussian 16:  ES64L-G16RevA.03 25-Dec-2016

 ----------
 #p opt pm3
 ----------

 ------------------------------------------------
 Conformer number 016. Energy MM = 0.000 kcal/mol
 ------------------------------------------------
 Symbolic Z-matrix:
 Charge =  0 Multiplicity = 1

 SCF Done:  E(RPM3) = -0.848895479060E-01 A.U. after   13 cycles
 SCF Done:  E(RPM3) = -0.107397991596     A.U. after   12 cycles
 SCF Done:  E(RPM3) = -0.112439806244     A.U. after   12 cycles
 SCF Done:  E(RPM3) = -0.113994329083     A.U. after   12 cycles
 SCF Done:  E(RPM3) = -0.115606593013     A.U. after   12 cycles
 SCF Done:  E(RPM3) = -0.116690363199     A.U. after   12 cycles
 SCF Done:  E(RPM3) = -0.117029689150     A.U. after   11 cycles
 SCF Done:  E(RPM3) = -0.117187476283     A.U. after   11 cycles
 SCF Done:  E(RPM3) = -0.117219465941     A.U. after   11 cycles
 SCF Done:  E(RPM3) = -0.117242168810     A.U. after   11 cycles
 SCF Done:  E(RPM3) = -0.116435233273     A.U. after   12 cycles
 SCF Done:  E(RPM3) = -0.117362401143     A.U. after   12 cycles
 SCF Done:  E(RPM3) = -0.117616611535     A.U. after    8 cycles
 SCF Done:  E(RPM3) = -0.117387574077     A.U. after   12 cycles
 SCF Done:  E(RPM3) = -0.117526888512     A.U. after   12 cycles
 SCF Done:  E(RPM3) = -0.117637808284     A.U. after    8 cycles
 SCF Done:  E(RPM3) = -0.117610259662     A.U. after   11 cycles
 SCF Done:  E(RPM3) = -0.117665524359     A.U. after   11 cycles
 SCF Done:  E(RPM3) = -0.117666193164     A.U. after   10 cycles
 SCF Done:  E(RPM3) = -0.117666750628     A.U. after   10 cycles
 Optimization completed.
    -- Stationary point found.

                         Standard orientation:
 ---------------------------------------------------------------------
 Center     Atomic      Atomic             Coordinates (Angstroms)
 Number     Number       Type             X           Y           Z
 ---------------------------------------------------------------------
      1          6           0        2.533504   -0.082431    0.338334
      2          1           0        3.431522   -0.586005   -0.042200
      3          1           0        2.499626   -0.247658    1.423670
      4          1           0        2.667774    0.995007    0.176133
      5          6           0        1.288761   -0.600651   -0.345732
      6          1           0        1.207579   -1.695508   -0.193229
      7          1           0        1.368535   -0.454376   -1.441472
      8          6           0        0.013244    0.070118    0.183583
      9          1           0        0.046837    0.118678    1.301010
     10          8           0       -0.001722    1.399363   -0.308318
     11          6           0       -1.233368   -0.720017   -0.255151
     12          1           0       -0.892028    1.714856   -0.186298
     13          1           0       -1.284052   -0.758528   -1.361544
     14          1           0       -1.137581   -1.771397    0.078591
     15          6           0       -2.500350   -0.112426    0.304821
     16          1           0       -2.558705    0.963925    0.072118
     17          1           0       -2.551479   -0.211380    1.397150
     18          1           0       -3.395002   -0.590077   -0.112509
 ---------------------------------------------------------------------

 The electronic state is 1-A.
 Alpha  occ. eigenvalues --   -1.48627  -1.24038  -1.21328  -0.95409  -0.79117
 Alpha  occ. eigenvalues --   -0.76030  -0.65831  -0.61758  -0.56450  -0.55600
 Alpha  occ. eigenvalues --   -0.53679  -0.51709  -0.49720  -0.48172  -0.47037
 Alpha  occ. eigenvalues --   -0.44414  -0.43791  -0.42903  -0.40140
 Alpha virt. eigenvalues --    0.11495   0.12631   0.12925   0.13655   0.13780
 Alpha virt. eigenvalues --    0.14522   0.14728   0.15173   0.15566   0.15889
 Alpha virt. eigenvalues --    0.16802   0.17076   0.17338   0.18400   0.18570

 Mulliken charges:
               1
     1  C   -0.106960
     2  H    0.034952
     3  H    0.034476
     4  H    0.050864
     5  C   -0.105372
     6  H    0.048511
     7  H    0.061240
     8  C    0.077019
     9  H    0.045034
    10  O   -0.317148
    11  C   -0.145568
    12  H    0.191134
    13  H    0.062307
    14  H    0.060684
    15  C   -0.110481
    16  H    0.033592
    17  H    0.041148
    18  H    0.044569
 Sum of Mulliken charges =   0.00000

 Dipole moment (field-independent basis, Debye):
    X=             -1.2452    Y=             -0.8610    Z=              0.5082  Tot=              1.5969
 N-N= 1.700426390223D+02 E-N=-2.545183968338D+02  KE=-5.968717204010D+01
 Leave Link  601 at Wed Sep  7 15:35:36 2022, MaxMem=   131072000 cpu:               0.0 elap:               0.0
 (Enter /opt/g16/l9999.exe)
 1\1\GINC-TOTEM2\FOpt\RPM3\ZDO\C5H12O1\JRAMOS\07-Sep-2022\0\\#p opt pm3
 \\Conformer number 016. Energy MM = 0.000 kcal/mol\\0,1\C,1.3557790481
 ,0.6935998063,7.8803926191\H,0.8383839156,0.7367498397,8.847485651\H,1
 .3231117036,-0.3491789072,7.5369587827\H,0.7709031848,1.2903389722,7.1
 683297262\C,2.7756550529,1.1989437839,8.0006530228\H,3.322746016,0.598
 5727899,8.7548445151\H,2.7776708347,2.238722104,8.384401675\C,3.532063
 4788,1.1285685979,6.6665082653\H,3.3391601784,0.142733115,6.1735108229

 Normal termination of Gaussian 16 at Wed Sep  7 15:35:36 2022.
