 Gaussian 16, Revision A.03,
 Gaussian 16:  ES64L-G16RevA.03 25-Dec-2016

 ----------
 #p opt pm3
 ----------

 ------------------------------------------------
 Conformer number 020. Energy MM = 0.000 kcal/mol
 ------------------------------------------------
 Symbolic Z-matrix:
 Charge =  0 Multiplicity = 1

 SCF Done:  E(RPM3) = -0.827641363638E-01 A.U. after   13 cycles
 SCF Done:  E(RPM3) = -0.108116260871     A.U. after   12 cycles
 SCF Done:  E(RPM3) = -0.113857617458     A.U. after   12 cycles
 SCF Done:  E(RPM3) = -0.114760910807     A.U. after   11 cycles
 SCF Done:  E(RPM3) = -0.115044505348     A.U. after   11 cycles
 SCF Done:  E(RPM3) = -0.115388770956     A.U. after   12 cycles
 SCF Done:  E(RPM3) = -0.115496503105     A.U. after   11 cycles
 SCF Done:  E(RPM3) = -0.115643975221     A.U. after   11 cycles
 SCF Done:  E(RPM3) = -0.115722971898     A.U. after   11 cycles
 SCF Done:  E(RPM3) = -0.115735506999     A.U. after   10 cycles
 SCF Done:  E(RPM3) = -0.115761355386     A.U. after   11 cycles
 SCF Done:  E(RPM3) = -0.115771778451     A.U. after   11 cycles
 SCF Done:  E(RPM3) = -0.115775056584     A.U. after   11 cycles
 SCF Done:  E(RPM3) = -0.115775755316     A.U. after    9 cycles
 SCF Done:  E(RPM3) = -0.115775824969     A.U. after    9 cycles
 Optimization completed.
    -- Stationary point found.

                         Standard orientation:
 ---------------------------------------------------------------------
 Center     Atomic      Atomic             Coordinates (Angstroms)
 Number     Number       Type             X           Y           Z
 ---------------------------------------------------------------------
      1          6           0        2.109501   -0.594164   -0.514583
      2          1           0        1.597068   -1.403632   -1.052244
      3          1           0        3.117433   -0.950996   -0.266738
      4          1           0        2.219535    0.243513   -1.216291
      5          6           0        1.354799   -0.186655    0.729767
      6          1           0        1.941771    0.573059    1.285581
      7          1           0        1.268098   -1.051585    1.416949
      8          6           0       -0.056596    0.363755    0.454448
      9          1           0       -0.501212    0.686767    1.430007
     10          8           0       -0.045390    1.487081   -0.408278
     11          6           0       -0.967709   -0.692218   -0.189013
     12          1           0        0.628496    2.070921   -0.086622
     13          1           0       -0.722196   -0.806976   -1.264339
     14          1           0       -0.756999   -1.677095    0.273638
     15          6           0       -2.432928   -0.354212   -0.029009
     16          1           0       -2.721901   -0.282944    1.028329
     17          1           0       -3.067347   -1.121810   -0.490629
     18          1           0       -2.682031    0.605098   -0.501080
 ---------------------------------------------------------------------

 The electronic state is 1-A.
 Alpha  occ. eigenvalues --   -1.48297  -1.25031  -1.19884  -0.94449  -0.83179
 Alpha  occ. eigenvalues --   -0.73603  -0.64070  -0.60945  -0.58620  -0.54340
 Alpha  occ. eigenvalues --   -0.53820  -0.51651  -0.49271  -0.48436  -0.47062
 Alpha  occ. eigenvalues --   -0.44263  -0.43566  -0.42375  -0.40160
 Alpha virt. eigenvalues --    0.11672   0.12589   0.13039   0.13809   0.14197
 Alpha virt. eigenvalues --    0.14730   0.14995   0.15430   0.15955   0.16187
 Alpha virt. eigenvalues --    0.17078   0.17384   0.17619   0.18414   0.18528

 Mulliken charges:
               1
     1  C   -0.110124
     2  H    0.043940
     3  H    0.037265
     4  H    0.045620
     5  C   -0.135458
     6  H    0.045926
     7  H    0.057227
     8  C    0.079630
     9  H    0.039661
    10  O   -0.309113
    11  C   -0.107124
    12  H    0.185205
    13  H    0.064932
    14  H    0.050521
    15  C   -0.107192
    16  H    0.033940
    17  H    0.035444
    18  H    0.049700
 Sum of Mulliken charges =  -0.00000

 Dipole moment (field-independent basis, Debye):
    X=              0.9134    Y=             -0.3165    Z=              1.0868  Tot=              1.4545
 N-N= 1.709817055304D+02 E-N=-2.564766413638D+02  KE=-5.965788758829D+01
 Leave Link  601 at Wed Sep  7 15:36:20 2022, MaxMem=   131072000 cpu:               0.0 elap:               0.0
 (Enter /opt/g16/l9999.exe)
 1\1\GINC-TOTEM2\FOpt\RPM3\ZDO\C5H12O1\JRAMOS\07-Sep-2022\0\\#p opt pm3
 \\Conformer number 020. Energy MM = 0.000 kcal/mol\\0,1\C,9.0447666487
 ,8.6475972059,3.377935691\H,9.8112020995,8.7815609388,2.602348216\H,8.
 9629160109,7.5712288883,3.5764712455\H,9.4214764041,9.1239759054,4.293
 0084239\C,7.714682239,9.2255910902,2.9526783076\H,6.9503299525,9.00029
 05723,3.7244538581\H,7.3615960097,8.7189584236,2.0326280757\C,7.744586
 2228,10.7433983629,2.6954764435\H,6.7048790827,11.0750539703,2.4449752

 Normal termination of Gaussian 16 at Wed Sep  7 15:36:20 2022.
