 Gaussian 16, Revision A.03,
 Gaussian 16:  ES64L-G16RevA.03 25-Dec-2016

 ----------
 #p opt pm3
 ----------

 ------------------------------------------------
 Conformer number 006. Energy MM = 0.000 kcal/mol
 ------------------------------------------------
 Symbolic Z-matrix:
 Charge =  0 Multiplicity = 1

 SCF Done:  E(RPM3) = -0.887632320234E-01 A.U. after   12 cycles
 SCF Done:  E(RPM3) = -0.110842081822     A.U. after   12 cycles
 SCF Done:  E(RPM3) = -0.115384468534     A.U. after   12 cycles
 SCF Done:  E(RPM3) = -0.116354068913     A.U. after   11 cycles
 SCF Done:  E(RPM3) = -0.117027938262     A.U. after   12 cycles
 SCF Done:  E(RPM3) = -0.117253458104     A.U. after   12 cycles
 SCF Done:  E(RPM3) = -0.117486288166     A.U. after   12 cycles
 SCF Done:  E(RPM3) = -0.117644239521     A.U. after   11 cycles
 SCF Done:  E(RPM3) = -0.117661026272     A.U. after   11 cycles
 SCF Done:  E(RPM3) = -0.117663330034     A.U. after    9 cycles
 SCF Done:  E(RPM3) = -0.117665841915     A.U. after   10 cycles
 SCF Done:  E(RPM3) = -0.117666675654     A.U. after   10 cycles
 SCF Done:  E(RPM3) = -0.117666794597     A.U. after    9 cycles
 Optimization completed.
    -- Stationary point found.

                         Standard orientation:
 ---------------------------------------------------------------------
 Center     Atomic      Atomic             Coordinates (Angstroms)
 Number     Number       Type             X           Y           Z
 ---------------------------------------------------------------------
      1          6           0        2.533496   -0.082585    0.338252
      2          1           0        2.499850   -0.247867    1.423587
      3          1           0        2.667634    0.994874    0.176114
      4          1           0        3.431471   -0.586044   -0.042464
      5          6           0        1.288620   -0.600889   -0.345640
      6          1           0        1.207399   -1.695662   -0.192809
      7          1           0        1.368305   -0.454793   -1.441390
      8          6           0        0.013236    0.070192    0.183628
      9          1           0        0.046775    0.118954    1.300975
     10          8           0       -0.001289    1.399505   -0.308170
     11          6           0       -1.233432   -0.719760   -0.255225
     12          1           0       -0.891662    1.715121   -0.186898
     13          1           0       -1.283993   -0.758152   -1.361650
     14          1           0       -1.137540   -1.771155    0.078392
     15          6           0       -2.500559   -0.112502    0.304785
     16          1           0       -2.551856   -0.211662    1.397076
     17          1           0       -3.395051   -0.590276   -0.112698
     18          1           0       -2.559181    0.963887    0.072325
 ---------------------------------------------------------------------

 The electronic state is 1-A.
 Alpha  occ. eigenvalues --   -1.48625  -1.24037  -1.21328  -0.95410  -0.79117
 Alpha  occ. eigenvalues --   -0.76032  -0.65828  -0.61757  -0.56449  -0.55600
 Alpha  occ. eigenvalues --   -0.53678  -0.51709  -0.49722  -0.48172  -0.47036
 Alpha  occ. eigenvalues --   -0.44414  -0.43791  -0.42903  -0.40140
 Alpha virt. eigenvalues --    0.11495   0.12630   0.12926   0.13655   0.13780
 Alpha virt. eigenvalues --    0.14522   0.14728   0.15174   0.15567   0.15889
 Alpha virt. eigenvalues --    0.16803   0.17077   0.17338   0.18400   0.18570

 Mulliken charges:
               1
     1  C   -0.106969
     2  H    0.034473
     3  H    0.050872
     4  H    0.034949
     5  C   -0.105372
     6  H    0.048518
     7  H    0.061237
     8  C    0.077017
     9  H    0.045046
    10  O   -0.317160
    11  C   -0.145557
    12  H    0.191126
    13  H    0.062307
    14  H    0.060676
    15  C   -0.110453
    16  H    0.041147
    17  H    0.044559
    18  H    0.033584
 Sum of Mulliken charges =   0.00000

 Dipole moment (field-independent basis, Debye):
    X=             -1.2457    Y=             -0.8610    Z=              0.5071  Tot=              1.5970
 N-N= 1.700408111310D+02 E-N=-2.545148159419D+02  KE=-5.968715071868D+01
 Leave Link  601 at Wed Sep  7 15:33:40 2022, MaxMem=   131072000 cpu:               0.0 elap:               0.0
 (Enter /opt/g16/l9999.exe)
 1\1\GINC-TOTEM2\FOpt\RPM3\ZDO\C5H12O1\JRAMOS\07-Sep-2022\0\\#p opt pm3
 \\Conformer number 006. Energy MM = 0.000 kcal/mol\\0,1\C,2.8639993172
 ,9.2846136478,2.007668797\H,3.0200310146,10.3515438032,2.2167518325\H,
 1.7863784864,9.0905918086,2.0869613631\H,3.1530351744,9.1093806065,0.9
 633858144\C,3.6612359742,8.4078640794,2.9467048459\H,4.7437123621,8.60
 37378667,2.8112020047\H,3.5134681373,7.3405036265,2.6873458954\C,3.293
 6609614,8.6479784598,4.4178649922\H,3.2255989936,9.7469906812,4.616631

 Normal termination of Gaussian 16 at Wed Sep  7 15:33:40 2022.
