 Gaussian 16, Revision A.03,
 Gaussian 16:  ES64L-G16RevA.03 25-Dec-2016

 ----------
 #p opt pm3
 ----------

 ------------------------------------------------
 Conformer number 001. Energy MM = 0.000 kcal/mol
 ------------------------------------------------
 Symbolic Z-matrix:
 Charge =  0 Multiplicity = 1

 SCF Done:  E(RPM3) = -0.684933819774E-01 A.U. after   13 cycles
 SCF Done:  E(RPM3) = -0.101494870618     A.U. after   12 cycles
 SCF Done:  E(RPM3) = -0.111499454916     A.U. after   12 cycles
 SCF Done:  E(RPM3) = -0.112455524833     A.U. after   11 cycles
 SCF Done:  E(RPM3) = -0.112797753126     A.U. after   11 cycles
 SCF Done:  E(RPM3) = -0.113305130038     A.U. after   12 cycles
 SCF Done:  E(RPM3) = -0.114272261580     A.U. after   12 cycles
 SCF Done:  E(RPM3) = -0.116446684895     A.U. after   12 cycles
 SCF Done:  E(RPM3) = -0.117928503059     A.U. after   12 cycles
 SCF Done:  E(RPM3) = -0.113864668702     A.U. after   12 cycles
 SCF Done:  E(RPM3) = -0.119024680126     A.U. after   11 cycles
 SCF Done:  E(RPM3) = -0.119083467713     A.U. after   11 cycles
 SCF Done:  E(RPM3) = -0.119179715541     A.U. after   11 cycles
 SCF Done:  E(RPM3) = -0.119217280978     A.U. after   11 cycles
 SCF Done:  E(RPM3) = -0.119225873569     A.U. after   10 cycles
 SCF Done:  E(RPM3) = -0.119228200285     A.U. after   10 cycles
 SCF Done:  E(RPM3) = -0.119229248682     A.U. after    9 cycles
 SCF Done:  E(RPM3) = -0.119230388493     A.U. after    9 cycles
 SCF Done:  E(RPM3) = -0.119231045747     A.U. after   10 cycles
 SCF Done:  E(RPM3) = -0.119231204838     A.U. after    9 cycles
 Optimization completed.
    -- Stationary point found.

                         Standard orientation:
 ---------------------------------------------------------------------
 Center     Atomic      Atomic             Coordinates (Angstroms)
 Number     Number       Type             X           Y           Z
 ---------------------------------------------------------------------
      1          6           0        2.107010   -0.594386   -0.509977
      2          1           0        2.199910    0.203196   -1.260248
      3          1           0        1.601054   -1.440989   -0.994278
      4          1           0        3.124659   -0.922656   -0.261423
      5          6           0        1.371895   -0.130178    0.727064
      6          1           0        1.953635    0.674192    1.220137
      7          1           0        1.320626   -0.956920    1.462747
      8          6           0       -0.056631    0.377673    0.461862
      9          1           0       -0.500040    0.738097    1.419971
     10          8           0       -0.067758    1.559024   -0.305831
     11          6           0       -0.946501   -0.721678   -0.142865
     12          1           0        0.318064    1.350961   -1.148802
     13          1           0       -0.667736   -0.905026   -1.200743
     14          1           0       -0.749740   -1.674814    0.386599
     15          6           0       -2.415481   -0.377574   -0.051747
     16          1           0       -2.738772   -0.252870    0.990468
     17          1           0       -3.035840   -1.166710   -0.495613
     18          1           0       -2.645507    0.558206   -0.578185
 ---------------------------------------------------------------------

 The electronic state is 1-A.
 Alpha  occ. eigenvalues --   -1.49052  -1.24573  -1.20143  -0.95180  -0.83293
 Alpha  occ. eigenvalues --   -0.74753  -0.63343  -0.61220  -0.58375  -0.56641
 Alpha  occ. eigenvalues --   -0.53646  -0.51354  -0.49802  -0.47821  -0.47205
 Alpha  occ. eigenvalues --   -0.44620  -0.43631  -0.42948  -0.40700
 Alpha virt. eigenvalues --    0.11507   0.12825   0.13072   0.13547   0.13964
 Alpha virt. eigenvalues --    0.14135   0.14684   0.14929   0.15516   0.15969
 Alpha virt. eigenvalues --    0.16913   0.17141   0.17303   0.17616   0.18326

 Mulliken charges:
               1
     1  C   -0.112179
     2  H    0.036201
     3  H    0.040314
     4  H    0.042097
     5  C   -0.135211
     6  H    0.061008
     7  H    0.056218
     8  C    0.073757
     9  H    0.070513
    10  O   -0.307925
    11  C   -0.133205
    12  H    0.184042
    13  H    0.052219
    14  H    0.056019
    15  C   -0.106930
    16  H    0.038901
    17  H    0.035896
    18  H    0.048266
 Sum of Mulliken charges =  -0.00000

 Dipole moment (field-independent basis, Debye):
    X=              0.5499    Y=             -1.4058    Z=             -0.3714  Tot=              1.5545
 N-N= 1.711160325675D+02 E-N=-2.566104270534D+02  KE=-5.969409781270D+01
 Leave Link  601 at Wed Sep  7 15:33:27 2022, MaxMem=   131072000 cpu:               0.0 elap:               0.0
 (Enter /opt/g16/l9999.exe)
 1\1\GINC-TOTEM2\FOpt\RPM3\ZDO\C5H12O1\JRAMOS\07-Sep-2022\0\\#p opt pm3
 \\Conformer number 001. Energy MM = 0.000 kcal/mol\\0,1\C,0.944302658,
 8.2960226951,13.6199862418\H,1.9042720504,8.5677949062,13.1592555928\H
 ,1.0875048921,8.3161825525,14.7091888297\H,0.2308340367,9.0923282909,1
 3.3709700954\C,0.4427566264,6.9523042656,13.1414225742\H,0.2453941749,
 7.0004838575,12.0517986312\H,-0.5344410286,6.7292612243,13.6133300648\
 C,1.4008158435,5.7812957468,13.4238967464\H,0.9690950167,4.8450535179,

 Normal termination of Gaussian 16 at Wed Sep  7 15:33:27 2022.
