 Gaussian 16, Revision A.03,
 Gaussian 16:  ES64L-G16RevA.03 25-Dec-2016

 ----------
 #p opt pm3
 ----------

 ------------------------------------------------
 Conformer number 014. Energy MM = 0.000 kcal/mol
 ------------------------------------------------
 Symbolic Z-matrix:
 Charge =  0 Multiplicity = 1

 SCF Done:  E(RPM3) = -0.850020346623E-01 A.U. after   12 cycles
 SCF Done:  E(RPM3) = -0.109473656410     A.U. after   12 cycles
 SCF Done:  E(RPM3) = -0.100359865929     A.U. after   12 cycles
 SCF Done:  E(RPM3) = -0.113809887384     A.U. after   11 cycles
 SCF Done:  E(RPM3) = -0.115406672827     A.U. after   11 cycles
 SCF Done:  E(RPM3) = -0.115786966987     A.U. after   11 cycles
 SCF Done:  E(RPM3) = -0.116255380565     A.U. after   12 cycles
 SCF Done:  E(RPM3) = -0.972953083588E-01 A.U. after   12 cycles
 SCF Done:  E(RPM3) = -0.117088410810     A.U. after   12 cycles
 SCF Done:  E(RPM3) = -0.117624121071     A.U. after   12 cycles
 SCF Done:  E(RPM3) = -0.118443246360     A.U. after   11 cycles
 SCF Done:  E(RPM3) = -0.118448776797     A.U. after   10 cycles
 SCF Done:  E(RPM3) = -0.118449350231     A.U. after    9 cycles
 SCF Done:  E(RPM3) = -0.118449594710     A.U. after    9 cycles
 SCF Done:  E(RPM3) = -0.118449940088     A.U. after    9 cycles
 SCF Done:  E(RPM3) = -0.118450070887     A.U. after    9 cycles
 SCF Done:  E(RPM3) = -0.118450164506     A.U. after    9 cycles
 SCF Done:  E(RPM3) = -0.118450204846     A.U. after    9 cycles
 SCF Done:  E(RPM3) = -0.118450237896     A.U. after    9 cycles
 SCF Done:  E(RPM3) = -0.118450253795     A.U. after    8 cycles
 Optimization completed.
    -- Stationary point found.

                         Standard orientation:
 ---------------------------------------------------------------------
 Center     Atomic      Atomic             Coordinates (Angstroms)
 Number     Number       Type             X           Y           Z
 ---------------------------------------------------------------------
      1          6           0        1.669222   -1.001149   -0.346239
      2          1           0        0.859437   -1.728469   -0.519355
      3          1           0        2.552529   -1.567203   -0.022962
      4          1           0        1.915911   -0.549049   -1.316647
      5          6           0        1.286973    0.034359    0.686178
      6          1           0        2.125418    0.750822    0.798630
      7          1           0        1.175087   -0.450467    1.676405
      8          6           0        0.000040    0.826681    0.386457
      9          1           0        0.000055    1.737318    1.032577
     10          8           0       -0.000241    1.411368   -0.892682
     11          6           0       -1.286489    0.033945    0.686680
     12          1           0       -0.000197    0.702605   -1.525994
     13          1           0       -1.173766   -0.451547    1.676486
     14          1           0       -2.124963    0.750188    0.800289
     15          6           0       -1.669468   -1.000837   -0.346203
     16          1           0       -2.552807   -1.566758   -0.022841
     17          1           0       -0.859971   -1.728276   -0.520117
     18          1           0       -1.916471   -0.548105   -1.316254
 ---------------------------------------------------------------------

 The electronic state is 1-A.
 Alpha  occ. eigenvalues --   -1.49419  -1.24779  -1.18294  -0.99176  -0.81403
 Alpha  occ. eigenvalues --   -0.73802  -0.65454  -0.60269  -0.58413  -0.57722
 Alpha  occ. eigenvalues --   -0.52378  -0.50961  -0.50806  -0.48501  -0.46802
 Alpha  occ. eigenvalues --   -0.45771  -0.42808  -0.42617  -0.40272
 Alpha virt. eigenvalues --    0.11545   0.12693   0.12947   0.13359   0.13719
 Alpha virt. eigenvalues --    0.14405   0.14448   0.14578   0.15496   0.15520
 Alpha virt. eigenvalues --    0.16716   0.17078   0.17556   0.17676   0.18164

 Mulliken charges:
               1
     1  C   -0.122249
     2  H    0.047008
     3  H    0.042194
     4  H    0.040813
     5  C   -0.130525
     6  H    0.056983
     7  H    0.055072
     8  C    0.078767
     9  H    0.063251
    10  O   -0.307503
    11  C   -0.130515
    12  H    0.186874
    13  H    0.055082
    14  H    0.056969
    15  C   -0.122243
    16  H    0.042193
    17  H    0.047000
    18  H    0.040828
 Sum of Mulliken charges =  -0.00000

 Dipole moment (field-independent basis, Debye):
    X=              0.0002    Y=             -1.5815    Z=              0.3913  Tot=              1.6292
 N-N= 1.731538791052D+02 E-N=-2.606422189072D+02  KE=-5.970948177147D+01
 Leave Link  601 at Wed Sep  7 15:35:23 2022, MaxMem=   131072000 cpu:               0.0 elap:               0.0
 (Enter /opt/g16/l9999.exe)
 1\1\GINC-TOTEM2\FOpt\RPM3\ZDO\C5H12O1\JRAMOS\07-Sep-2022\0\\#p opt pm3
 \\Conformer number 014. Energy MM = 0.000 kcal/mol\\0,1\C,9.7600633472
 ,5.2181395837,8.6044580327\H,10.3229808452,4.3152312927,8.3170642291\H
 ,10.3739479336,5.7683182054,9.329444736\H,9.6769281632,5.8504177201,7.
 7098878672\C,8.4095800184,4.8784564224,9.191899456\H,7.8806731286,5.82
 15720121,9.4363275038\H,8.5451091613,4.3541627697,10.1587869399\C,7.49
 46077202,4.0188852337,8.2987213038\H,6.4537981584,4.1014643407,8.69448

 Normal termination of Gaussian 16 at Wed Sep  7 15:35:23 2022.
