 Gaussian 16, Revision A.03,
 Gaussian 16:  ES64L-G16RevA.03 25-Dec-2016

 ----------
 #p opt pm3
 ----------

 ------------------------------------------------
 Conformer number 010. Energy MM = 0.000 kcal/mol
 ------------------------------------------------
 Symbolic Z-matrix:
 Charge =  0 Multiplicity = 1

 SCF Done:  E(RPM3) = -0.833392424694E-01 A.U. after   12 cycles
 SCF Done:  E(RPM3) = -0.108771527070     A.U. after   12 cycles
 SCF Done:  E(RPM3) = -0.114147900687     A.U. after   12 cycles
 SCF Done:  E(RPM3) = -0.114784617883     A.U. after   11 cycles
 SCF Done:  E(RPM3) = -0.115146450313     A.U. after   11 cycles
 SCF Done:  E(RPM3) = -0.115425590953     A.U. after   12 cycles
 SCF Done:  E(RPM3) = -0.115662096026     A.U. after   11 cycles
 SCF Done:  E(RPM3) = -0.115743822126     A.U. after   11 cycles
 SCF Done:  E(RPM3) = -0.115766724836     A.U. after   11 cycles
 SCF Done:  E(RPM3) = -0.115770647789     A.U. after   10 cycles
 SCF Done:  E(RPM3) = -0.115773077108     A.U. after   10 cycles
 SCF Done:  E(RPM3) = -0.115774886307     A.U. after   10 cycles
 SCF Done:  E(RPM3) = -0.115775638878     A.U. after   10 cycles
 SCF Done:  E(RPM3) = -0.115775741072     A.U. after    9 cycles
 Optimization completed.
    -- Stationary point found.

                         Standard orientation:
 ---------------------------------------------------------------------
 Center     Atomic      Atomic             Coordinates (Angstroms)
 Number     Number       Type             X           Y           Z
 ---------------------------------------------------------------------
      1          6           0        2.110360   -0.591950   -0.515367
      2          1           0        3.117468   -0.951152   -0.267643
      3          1           0        2.222472    0.248557   -1.213343
      4          1           0        1.597568   -1.398437   -1.057135
      5          6           0        1.354509   -0.188822    0.729701
      6          1           0        1.940980    0.568788    1.288888
      7          1           0        1.267065   -1.056289    1.413571
      8          6           0       -0.056610    0.362674    0.455022
      9          1           0       -0.500875    0.685118    1.430920
     10          8           0       -0.045180    1.486869   -0.406588
     11          6           0       -0.968305   -0.692296   -0.189197
     12          1           0        0.630537    2.069136   -0.085921
     13          1           0       -0.722305   -0.806992   -1.264426
     14          1           0       -0.758757   -1.677507    0.273235
     15          6           0       -2.433342   -0.353086   -0.029943
     16          1           0       -2.722208   -0.278858    1.027223
     17          1           0       -3.068201   -1.121559   -0.489488
     18          1           0       -2.681975    0.605120   -0.504472
 ---------------------------------------------------------------------

 The electronic state is 1-A.
 Alpha  occ. eigenvalues --   -1.48297  -1.25026  -1.19889  -0.94456  -0.83170
 Alpha  occ. eigenvalues --   -0.73610  -0.64065  -0.60950  -0.58621  -0.54339
 Alpha  occ. eigenvalues --   -0.53816  -0.51654  -0.49276  -0.48434  -0.47059
 Alpha  occ. eigenvalues --   -0.44270  -0.43567  -0.42372  -0.40158
 Alpha virt. eigenvalues --    0.11672   0.12588   0.13038   0.13808   0.14197
 Alpha virt. eigenvalues --    0.14728   0.14994   0.15428   0.15957   0.16188
 Alpha virt. eigenvalues --    0.17076   0.17384   0.17617   0.18415   0.18529

 Mulliken charges:
               1
     1  C   -0.110098
     2  H    0.037278
     3  H    0.045544
     4  H    0.043981
     5  C   -0.135522
     6  H    0.045949
     7  H    0.057266
     8  C    0.079646
     9  H    0.039685
    10  O   -0.309133
    11  C   -0.107135
    12  H    0.185229
    13  H    0.064897
    14  H    0.050501
    15  C   -0.107170
    16  H    0.033964
    17  H    0.035424
    18  H    0.049693
 Sum of Mulliken charges =  -0.00000

 Dipole moment (field-independent basis, Debye):
    X=              0.9160    Y=             -0.3197    Z=              1.0845  Tot=              1.4552
 N-N= 1.709813135522D+02 E-N=-2.564756327606D+02  KE=-5.965794939266D+01
 Leave Link  601 at Wed Sep  7 15:34:33 2022, MaxMem=   131072000 cpu:               0.0 elap:               0.0
 (Enter /opt/g16/l9999.exe)
 1\1\GINC-TOTEM2\FOpt\RPM3\ZDO\C5H12O1\JRAMOS\07-Sep-2022\0\\#p opt pm3
 \\Conformer number 010. Energy MM = 0.000 kcal/mol\\0,1\C,8.8115788569
 ,7.7417498075,14.1251196073\H,7.913890814,8.3553268502,14.2745863236\H
 ,9.178509355,7.4470232428,15.1174348652\H,8.5002425197,6.8240188014,13
 .6076951023\C,9.8613575848,8.4947077541,13.3408771599\H,10.0912093951,
 9.4507371048,13.8544794523\H,9.4558488477,8.783025601,12.3507971547\C,
 11.1669276691,7.7074241985,13.1251838943\H,11.891591462,8.3736540631,1

 Normal termination of Gaussian 16 at Wed Sep  7 15:34:33 2022.
