 Gaussian 16, Revision A.03,
 Gaussian 16:  ES64L-G16RevA.03 25-Dec-2016

 ----------
 #p opt pm3
 ----------

 ------------------------------------------------
 Conformer number 011. Energy MM = 0.000 kcal/mol
 ------------------------------------------------
 Symbolic Z-matrix:
 Charge =  0 Multiplicity = 1

 SCF Done:  E(RPM3) = -0.735413127113E-01 A.U. after   12 cycles
 SCF Done:  E(RPM3) = -0.108065711929     A.U. after   12 cycles
 SCF Done:  E(RPM3) = -0.117210285992     A.U. after   12 cycles
 SCF Done:  E(RPM3) = -0.118377471028     A.U. after   11 cycles
 SCF Done:  E(RPM3) = -0.118617917868     A.U. after   10 cycles
 SCF Done:  E(RPM3) = -0.118993250239     A.U. after   11 cycles
 SCF Done:  E(RPM3) = -0.119209747662     A.U. after   11 cycles
 SCF Done:  E(RPM3) = -0.119573604284     A.U. after   11 cycles
 SCF Done:  E(RPM3) = -0.119911245449     A.U. after   10 cycles
 SCF Done:  E(RPM3) = -0.120114114174     A.U. after   10 cycles
 SCF Done:  E(RPM3) = -0.120135957548     A.U. after   10 cycles
 SCF Done:  E(RPM3) = -0.120147530721     A.U. after    9 cycles
 SCF Done:  E(RPM3) = -0.120150731588     A.U. after    9 cycles
 SCF Done:  E(RPM3) = -0.120151824923     A.U. after    9 cycles
 SCF Done:  E(RPM3) = -0.120152098599     A.U. after    9 cycles
 SCF Done:  E(RPM3) = -0.120152147356     A.U. after    8 cycles
 Optimization completed.
    -- Stationary point found.

                         Standard orientation:
 ---------------------------------------------------------------------
 Center     Atomic      Atomic             Coordinates (Angstroms)
 Number     Number       Type             X           Y           Z
 ---------------------------------------------------------------------
      1          6           0        2.212018   -0.613074    0.117112
      2          1           0        2.975367   -0.948951   -0.596439
      3          1           0        1.844217   -1.503191    0.645815
      4          1           0        2.713895    0.022794    0.858841
      5          6           0        1.095789    0.123357   -0.585939
      6          1           0        0.631914   -0.530113   -1.359833
      7          1           0        1.511135    0.992262   -1.133998
      8          6           0        0.010044    0.593344    0.400015
      9          1           0        0.480846    0.977894    1.334769
     10          8           0       -0.649803    1.747533   -0.068234
     11          6           0       -0.972954   -0.540027    0.744270
     12          1           0       -1.116525    1.503364   -0.858571
     13          1           0       -0.406734   -1.347555    1.249803
     14          1           0       -1.709989   -0.177452    1.487324
     15          6           0       -1.692545   -1.099783   -0.462954
     16          1           0       -0.980433   -1.323345   -1.275729
     17          1           0       -2.438061   -0.400055   -0.864154
     18          1           0       -2.221312   -2.028816   -0.216977
 ---------------------------------------------------------------------

 The electronic state is 1-A.
 Alpha  occ. eigenvalues --   -1.49462  -1.26019  -1.18479  -0.94214  -0.85450
 Alpha  occ. eigenvalues --   -0.73604  -0.63820  -0.61073  -0.58693  -0.56844
 Alpha  occ. eigenvalues --   -0.52860  -0.52255  -0.49781  -0.48282  -0.46524
 Alpha  occ. eigenvalues --   -0.44845  -0.44454  -0.42067  -0.40700
 Alpha virt. eigenvalues --    0.11631   0.12558   0.13110   0.13496   0.13991
 Alpha virt. eigenvalues --    0.14221   0.14375   0.14856   0.15168   0.15995
 Alpha virt. eigenvalues --    0.16509   0.17243   0.17275   0.17631   0.18257

 Mulliken charges:
               1
     1  C   -0.103823
     2  H    0.038369
     3  H    0.038292
     4  H    0.040834
     5  C   -0.147124
     6  H    0.058041
     7  H    0.064355
     8  C    0.074724
     9  H    0.070767
    10  O   -0.308972
    11  C   -0.136400
    12  H    0.183584
    13  H    0.058237
    14  H    0.062032
    15  C   -0.119407
    16  H    0.045417
    17  H    0.037446
    18  H    0.043628
 Sum of Mulliken charges =  -0.00000

 Dipole moment (field-independent basis, Debye):
    X=              0.0200    Y=             -1.5016    Z=             -0.6190  Tot=              1.6243
 N-N= 1.716920341620D+02 E-N=-2.577210249434D+02  KE=-5.971486102439D+01
 Leave Link  601 at Wed Sep  7 15:34:33 2022, MaxMem=   131072000 cpu:               0.0 elap:               0.0
 (Enter /opt/g16/l9999.exe)
 1\1\GINC-TOTEM2\FOpt\RPM3\ZDO\C5H12O1\JRAMOS\07-Sep-2022\0\\#p opt pm3
 \\Conformer number 011. Energy MM = 0.000 kcal/mol\\0,1\C,14.730734161
 4,3.8570756763,10.650316109\H,15.5675055569,3.3447227621,11.1422305294
 \H,13.8440816881,3.2181566043,10.7631931983\H,14.5390406492,4.78286356
 83,11.2093702794\C,15.040639318,4.1356138332,9.1980922478\H,15.2709143
 053,3.1848513857,8.6650454876\H,15.9583934644,4.7523296124,9.125524315
 5\C,13.8721954006,4.8457788241,8.4894028492\H,13.4267234115,5.61596681

 Normal termination of Gaussian 16 at Wed Sep  7 15:34:33 2022.
