 Gaussian 16, Revision A.03,
 Gaussian 16:  ES64L-G16RevA.03 25-Dec-2016

 ----------
 #p opt pm3
 ----------

 ------------------------------------------------
 Conformer number 021. Energy MM = 0.000 kcal/mol
 ------------------------------------------------
 Symbolic Z-matrix:
 Charge =  0 Multiplicity = 1

 SCF Done:  E(RPM3) = -0.766630976561E-01 A.U. after   12 cycles
 SCF Done:  E(RPM3) = -0.104091793012     A.U. after   12 cycles
 SCF Done:  E(RPM3) = -0.113284479753     A.U. after   12 cycles
 SCF Done:  E(RPM3) = -0.114718353315     A.U. after   11 cycles
 SCF Done:  E(RPM3) = -0.115539868587     A.U. after   12 cycles
 SCF Done:  E(RPM3) = -0.116190930081     A.U. after   12 cycles
 SCF Done:  E(RPM3) = -0.116393368248     A.U. after   11 cycles
 SCF Done:  E(RPM3) = -0.116437233472     A.U. after   11 cycles
 SCF Done:  E(RPM3) = -0.116472206762     A.U. after   11 cycles
 SCF Done:  E(RPM3) = -0.116490737370     A.U. after   11 cycles
 SCF Done:  E(RPM3) = -0.114917602645     A.U. after   11 cycles
 SCF Done:  E(RPM3) = -0.116527028241     A.U. after   11 cycles
 SCF Done:  E(RPM3) = -0.116761397832     A.U. after    7 cycles
 SCF Done:  E(RPM3) = -0.116757471799     A.U. after   10 cycles
 SCF Done:  E(RPM3) = -0.115899870367     A.U. after   12 cycles
 SCF Done:  E(RPM3) = -0.116747987150     A.U. after   11 cycles
 SCF Done:  E(RPM3) = -0.116763306715     A.U. after    6 cycles
 SCF Done:  E(RPM3) = -0.116587517704     A.U. after   11 cycles
 SCF Done:  E(RPM3) = -0.116765435140     A.U. after   11 cycles
 SCF Done:  E(RPM3) = -0.116765908899     A.U. after   10 cycles
 Optimization completed.
    -- Stationary point found.

                         Standard orientation:
 ---------------------------------------------------------------------
 Center     Atomic      Atomic             Coordinates (Angstroms)
 Number     Number       Type             X           Y           Z
 ---------------------------------------------------------------------
      1          6           0       -2.156676   -0.577772   -0.107111
      2          1           0       -2.882411   -0.972233    0.613901
      3          1           0       -1.681734   -1.434473   -0.615177
      4          1           0       -2.716630   -0.016791   -0.866630
      5          6           0       -1.110828    0.279759    0.569728
      6          1           0       -0.674115   -0.260316    1.440915
      7          1           0       -1.567946    1.201723    0.977096
      8          6           0        0.020420    0.622102   -0.412804
      9          1           0       -0.416177    1.011637   -1.366022
     10          8           0        0.771635    1.673519    0.164827
     11          6           0        0.852505   -0.636593   -0.718386
     12          1           0        1.608460    1.688199   -0.280196
     13          1           0        0.142610   -1.407287   -1.095634
     14          1           0        1.563585   -0.439642   -1.543555
     15          6           0        1.584394   -1.163807    0.494869
     16          1           0        0.897320   -1.232797    1.355715
     17          1           0        2.412936   -0.507355    0.791387
     18          1           0        2.002135   -2.160952    0.311811
 ---------------------------------------------------------------------

 The electronic state is 1-A.
 Alpha  occ. eigenvalues --   -1.49361  -1.26837  -1.17425  -0.93490  -0.86009
 Alpha  occ. eigenvalues --   -0.71616  -0.63175  -0.61900  -0.60954  -0.54893
 Alpha  occ. eigenvalues --   -0.52551  -0.50804  -0.49942  -0.48665  -0.47796
 Alpha  occ. eigenvalues --   -0.44744  -0.42910  -0.42542  -0.39867
 Alpha virt. eigenvalues --    0.11762   0.12375   0.13063   0.13598   0.14150
 Alpha virt. eigenvalues --    0.14495   0.14752   0.15342   0.15594   0.16087
 Alpha virt. eigenvalues --    0.16797   0.17339   0.17605   0.17804   0.18518

 Mulliken charges:
               1
     1  C   -0.113568
     2  H    0.040795
     3  H    0.040798
     4  H    0.038860
     5  C   -0.121630
     6  H    0.063587
     7  H    0.067526
     8  C    0.078724
     9  H    0.041958
    10  O   -0.311555
    11  C   -0.146749
    12  H    0.187610
    13  H    0.065244
    14  H    0.050538
    15  C   -0.114124
    16  H    0.051610
    17  H    0.040760
    18  H    0.039614
 Sum of Mulliken charges =   0.00000

 Dipole moment (field-independent basis, Debye):
    X=              0.3888    Y=             -1.0990    Z=             -0.9874  Tot=              1.5277
 N-N= 1.722981673330D+02 E-N=-2.590175434330D+02  KE=-5.970268023925D+01
 Leave Link  601 at Wed Sep  7 15:36:35 2022, MaxMem=   131072000 cpu:               0.0 elap:               0.0
 (Enter /opt/g16/l9999.exe)
 1\1\GINC-TOTEM2\FOpt\RPM3\ZDO\C5H12O1\JRAMOS\07-Sep-2022\0\\#p opt pm3
 \\Conformer number 021. Energy MM = 0.000 kcal/mol\\0,1\C,9.4982657096
 ,1.2433844567,-0.3758794344\H,9.3567325917,0.3431177534,0.2337401852\H
 ,10.4836731601,1.1702556723,-0.8670645205\H,8.7370647307,1.230187821,-
 1.1667746058\C,9.4187070603,2.4999737447,0.4619280052\H,10.0859054943,
 2.4142020032,1.3501041046\H,8.3948555124,2.6387881373,0.8586430404\C,9
 .8529883325,3.7226726682,-0.3619030055\H,9.3087654553,3.7287134279,-1.

 Normal termination of Gaussian 16 at Wed Sep  7 15:36:35 2022.
