 Gaussian 16, Revision A.03,
 Gaussian 16:  ES64L-G16RevA.03 25-Dec-2016

 ----------
 #p opt pm3
 ----------

 ------------------------------------------------
 Conformer number 013. Energy MM = 0.000 kcal/mol
 ------------------------------------------------
 Symbolic Z-matrix:
 Charge =  0 Multiplicity = 1

 SCF Done:  E(RPM3) = -0.781777553129E-01 A.U. after   13 cycles
 SCF Done:  E(RPM3) = -0.106064100442     A.U. after   12 cycles
 SCF Done:  E(RPM3) = -0.113228070890     A.U. after   12 cycles
 SCF Done:  E(RPM3) = -0.115250580294     A.U. after   11 cycles
 SCF Done:  E(RPM3) = -0.116118296384     A.U. after   12 cycles
 SCF Done:  E(RPM3) = -0.116405134814     A.U. after   12 cycles
 SCF Done:  E(RPM3) = -0.117558563908     A.U. after   12 cycles
 SCF Done:  E(RPM3) = -0.117343265764     A.U. after   12 cycles
 SCF Done:  E(RPM3) = -0.118089709650     A.U. after   11 cycles
 SCF Done:  E(RPM3) = -0.118379567381     A.U. after   12 cycles
 SCF Done:  E(RPM3) = -0.118437105831     A.U. after   11 cycles
 SCF Done:  E(RPM3) = -0.118467669351     A.U. after   11 cycles
 SCF Done:  E(RPM3) = -0.118476702254     A.U. after   10 cycles
 SCF Done:  E(RPM3) = -0.118481620180     A.U. after   10 cycles
 SCF Done:  E(RPM3) = -0.118482612093     A.U. after   10 cycles
 SCF Done:  E(RPM3) = -0.118482939613     A.U. after    9 cycles
 SCF Done:  E(RPM3) = -0.118483304139     A.U. after    9 cycles
 Optimization completed.
    -- Stationary point found.

                         Standard orientation:
 ---------------------------------------------------------------------
 Center     Atomic      Atomic             Coordinates (Angstroms)
 Number     Number       Type             X           Y           Z
 ---------------------------------------------------------------------
      1          6           0        2.175469   -0.856537    0.184025
      2          1           0        2.799144    0.048334    0.198803
      3          1           0        2.745807   -1.632423   -0.342741
      4          1           0        2.057012   -1.187112    1.224836
      5          6           0        0.841107   -0.615074   -0.482575
      6          1           0        0.252808   -1.560426   -0.515302
      7          1           0        0.987479   -0.315617   -1.539191
      8          6           0       -0.004138    0.438238    0.254714
      9          1           0        0.039108    0.249197    1.356913
     10          8           0        0.447191    1.758639    0.011743
     11          6           0       -1.466352    0.385830   -0.215344
     12          1           0        1.381922    1.756629    0.173002
     13          1           0       -2.030056    1.241571    0.206101
     14          1           0       -1.512245    0.512141   -1.315485
     15          6           0       -2.119352   -0.917036    0.188876
     16          1           0       -2.221803   -1.001745    1.278564
     17          1           0       -1.516047   -1.775979   -0.151567
     18          1           0       -3.121063   -1.016204   -0.246057
 ---------------------------------------------------------------------

 The electronic state is 1-A.
 Alpha  occ. eigenvalues --   -1.48808  -1.26198  -1.19650  -0.93580  -0.82946
 Alpha  occ. eigenvalues --   -0.74483  -0.64726  -0.61266  -0.58736  -0.55696
 Alpha  occ. eigenvalues --   -0.53078  -0.51098  -0.49604  -0.48756  -0.47702
 Alpha  occ. eigenvalues --   -0.44356  -0.43961  -0.42577  -0.40115
 Alpha virt. eigenvalues --    0.11615   0.12651   0.13076   0.13451   0.13610
 Alpha virt. eigenvalues --    0.14650   0.14723   0.15278   0.15381   0.15725
 Alpha virt. eigenvalues --    0.16728   0.16977   0.17439   0.17845   0.18507

 Mulliken charges:
               1
     1  C   -0.106901
     2  H    0.032771
     3  H    0.041690
     4  H    0.039947
     5  C   -0.156106
     6  H    0.068818
     7  H    0.064995
     8  C    0.079208
     9  H    0.043442
    10  O   -0.313515
    11  C   -0.111975
    12  H    0.188180
    13  H    0.064006
    14  H    0.058492
    15  C   -0.114749
    16  H    0.038727
    17  H    0.041706
    18  H    0.041263
 Sum of Mulliken charges =   0.00000

 Dipole moment (field-independent basis, Debye):
    X=              0.7653    Y=             -1.3359    Z=              0.3248  Tot=              1.5735
 N-N= 1.705283714839D+02 E-N=-2.554477295340D+02  KE=-5.969925419043D+01
 Leave Link  601 at Wed Sep  7 15:34:45 2022, MaxMem=   131072000 cpu:               0.0 elap:               0.0
 (Enter /opt/g16/l9999.exe)
 1\1\GINC-TOTEM2\FOpt\RPM3\ZDO\C5H12O1\JRAMOS\07-Sep-2022\0\\#p opt pm3
 \\Conformer number 013. Energy MM = 0.000 kcal/mol\\0,1\C,13.425554344
 7,6.9999864316,2.7702624677\H,13.931450656,6.5322607104,1.9139431086\H
 ,12.7986922541,6.2281407471,3.2350894659\H,14.2021313449,7.2728751565,
 3.497626142\C,12.5995096555,8.1959103868,2.3572265987\H,12.0707833422,
 8.6198164616,3.2413129433\H,11.8037621285,7.8882399594,1.6503587731\C,
 13.4532202665,9.3169115244,1.7391381345\H,14.3771884787,9.4662324232,2

 Normal termination of Gaussian 16 at Wed Sep  7 15:34:45 2022.
