 Gaussian 16, Revision A.03,
 Gaussian 16:  ES64L-G16RevA.03 25-Dec-2016

 ----------
 #p opt pm3
 ----------

 ------------------------------------------------
 Conformer number 022. Energy MM = 0.000 kcal/mol
 ------------------------------------------------
 Symbolic Z-matrix:
 Charge =  0 Multiplicity = 1

 SCF Done:  E(RPM3) = -0.799434816222E-01 A.U. after   12 cycles
 SCF Done:  E(RPM3) = -0.107703393461     A.U. after   11 cycles
 SCF Done:  E(RPM3) = -0.115255131899     A.U. after   12 cycles
 SCF Done:  E(RPM3) = -0.116628570787     A.U. after   12 cycles
 SCF Done:  E(RPM3) = -0.117290623007     A.U. after   12 cycles
 SCF Done:  E(RPM3) = -0.117944127063     A.U. after   12 cycles
 SCF Done:  E(RPM3) = -0.118359902551     A.U. after   12 cycles
 SCF Done:  E(RPM3) = -0.118461926203     A.U. after   11 cycles
 SCF Done:  E(RPM3) = -0.118475227068     A.U. after   10 cycles
 SCF Done:  E(RPM3) = -0.118480907588     A.U. after   10 cycles
 SCF Done:  E(RPM3) = -0.118482524649     A.U. after   10 cycles
 SCF Done:  E(RPM3) = -0.118483217060     A.U. after   10 cycles
 SCF Done:  E(RPM3) = -0.118483353217     A.U. after    9 cycles
 SCF Done:  E(RPM3) = -0.118483431807     A.U. after    9 cycles
 SCF Done:  E(RPM3) = -0.118483480447     A.U. after    8 cycles
 Optimization completed.
    -- Stationary point found.

                         Standard orientation:
 ---------------------------------------------------------------------
 Center     Atomic      Atomic             Coordinates (Angstroms)
 Number     Number       Type             X           Y           Z
 ---------------------------------------------------------------------
      1          6           0        2.120757   -0.915518    0.189088
      2          1           0        3.121461   -1.015132   -0.248077
      3          1           0        1.516991   -1.775412   -0.148151
      4          1           0        2.225899   -0.998024    1.278705
      5          6           0        1.466209    0.386332   -0.216166
      6          1           0        1.511228    0.511395   -1.316449
      7          1           0        2.029370    1.242987    0.204148
      8          6           0        0.004231    0.437747    0.254867
      9          1           0       -0.038098    0.249222    1.357173
     10          8           0       -0.448465    1.757639    0.011713
     11          6           0       -0.840441   -0.616798   -0.481210
     12          1           0       -1.383555    1.754159    0.170968
     13          1           0       -0.984487   -0.320049   -1.538944
     14          1           0       -0.252644   -1.562582   -0.510363
     15          6           0       -2.176264   -0.855443    0.183402
     16          1           0       -2.799775    0.049649    0.193286
     17          1           0       -2.060105   -1.181974    1.225728
     18          1           0       -2.745516   -1.633270   -0.341613
 ---------------------------------------------------------------------

 The electronic state is 1-A.
 Alpha  occ. eigenvalues --   -1.48812  -1.26193  -1.19652  -0.93583  -0.82945
 Alpha  occ. eigenvalues --   -0.74483  -0.64721  -0.61274  -0.58735  -0.55703
 Alpha  occ. eigenvalues --   -0.53072  -0.51097  -0.49602  -0.48759  -0.47704
 Alpha  occ. eigenvalues --   -0.44361  -0.43967  -0.42572  -0.40113
 Alpha virt. eigenvalues --    0.11616   0.12648   0.13072   0.13454   0.13608
 Alpha virt. eigenvalues --    0.14648   0.14722   0.15277   0.15382   0.15724
 Alpha virt. eigenvalues --    0.16727   0.16975   0.17438   0.17845   0.18507

 Mulliken charges:
               1
     1  C   -0.114782
     2  H    0.041260
     3  H    0.041702
     4  H    0.038730
     5  C   -0.111970
     6  H    0.058481
     7  H    0.064024
     8  C    0.079196
     9  H    0.043454
    10  O   -0.313558
    11  C   -0.156098
    12  H    0.188222
    13  H    0.064969
    14  H    0.068806
    15  C   -0.106914
    16  H    0.032795
    17  H    0.039964
    18  H    0.041719
 Sum of Mulliken charges =   0.00000

 Dipole moment (field-independent basis, Debye):
    X=             -0.7652    Y=             -1.3379    Z=              0.3225  Tot=              1.5747
 N-N= 1.705297022285D+02 E-N=-2.554499999653D+02  KE=-5.969939290839D+01
 Leave Link  601 at Wed Sep  7 15:36:31 2022, MaxMem=   131072000 cpu:               0.0 elap:               0.0
 (Enter /opt/g16/l9999.exe)
 1\1\GINC-TOTEM2\FOpt\RPM3\ZDO\C5H12O1\JRAMOS\07-Sep-2022\0\\#p opt pm3
 \\Conformer number 022. Energy MM = 0.000 kcal/mol\\0,1\C,2.999495223,
 2.3414533619,11.6430268642\H,4.0281663547,2.5887521401,11.354714945\H,
 2.6997370018,3.0301678008,12.4514206393\H,2.3543852588,2.5510952418,10
 .7798871354\C,2.881911739,0.9036986973,12.097464603\H,3.6498927395,0.6
 80524557,12.8647249246\H,3.09633936,0.2185779231,11.2534846518\C,1.481
 7697844,0.6175316275,12.6628004881\H,0.7093212763,0.9033666245,11.9051

 Normal termination of Gaussian 16 at Wed Sep  7 15:36:31 2022.
