 Gaussian 16, Revision A.03,
 Gaussian 16:  ES64L-G16RevA.03 25-Dec-2016

 ----------
 #p opt pm3
 ----------

 ------------------------------------------------
 Conformer number 019. Energy MM = 0.000 kcal/mol
 ------------------------------------------------
 Symbolic Z-matrix:
 Charge =  0 Multiplicity = 1

 SCF Done:  E(RPM3) = -0.785771167129E-01 A.U. after   13 cycles
 SCF Done:  E(RPM3) = -0.109120511795     A.U. after   12 cycles
 SCF Done:  E(RPM3) = -0.116620617034     A.U. after   12 cycles
 SCF Done:  E(RPM3) = -0.117214801061     A.U. after   11 cycles
 SCF Done:  E(RPM3) = -0.117341550011     A.U. after   11 cycles
 SCF Done:  E(RPM3) = -0.117471083262     A.U. after   11 cycles
 SCF Done:  E(RPM3) = -0.117470252714     A.U. after   11 cycles
 SCF Done:  E(RPM3) = -0.117558655609     A.U. after   11 cycles
 SCF Done:  E(RPM3) = -0.117576686396     A.U. after   10 cycles
 SCF Done:  E(RPM3) = -0.117528927040     A.U. after   11 cycles
 SCF Done:  E(RPM3) = -0.117391494154     A.U. after   12 cycles
 SCF Done:  E(RPM3) = -0.117633254246     A.U. after   12 cycles
 SCF Done:  E(RPM3) = -0.117552674220     A.U. after   11 cycles
 SCF Done:  E(RPM3) = -0.117640808796     A.U. after   12 cycles
 SCF Done:  E(RPM3) = -0.117655771826     A.U. after   11 cycles
 SCF Done:  E(RPM3) = -0.117665792963     A.U. after   11 cycles
 SCF Done:  E(RPM3) = -0.117666585024     A.U. after    9 cycles
 SCF Done:  E(RPM3) = -0.117666600847     A.U. after    9 cycles
 SCF Done:  E(RPM3) = -0.117666771831     A.U. after    9 cycles
 Optimization completed.
    -- Stationary point found.

                         Standard orientation:
 ---------------------------------------------------------------------
 Center     Atomic      Atomic             Coordinates (Angstroms)
 Number     Number       Type             X           Y           Z
 ---------------------------------------------------------------------
      1          6           0        2.500651   -0.112005    0.304576
      2          1           0        2.552181   -0.211056    1.396865
      3          1           0        2.558907    0.964383    0.071958
      4          1           0        3.395234   -0.589546   -0.113005
      5          6           0        1.233644   -0.719685   -0.255179
      6          1           0        1.138048   -1.771080    0.078482
      7          1           0        1.284110   -0.758100   -1.361619
      8          6           0       -0.013189    0.070025    0.183825
      9          1           0       -0.046404    0.119022    1.301180
     10          8           0        0.000830    1.399185   -0.308268
     11          6           0       -1.288475   -0.601623   -0.344860
     12          1           0        0.891233    1.714904   -0.187509
     13          1           0       -1.367681   -0.457232   -1.440877
     14          1           0       -1.207488   -1.696170   -0.190250
     15          6           0       -2.533558   -0.082062    0.337702
     16          1           0       -2.500176   -0.245322    1.423346
     17          1           0       -3.431398   -0.586279   -0.042337
     18          1           0       -2.667650    0.995090    0.173520
 ---------------------------------------------------------------------

 The electronic state is 1-A.
 Alpha  occ. eigenvalues --   -1.48627  -1.24036  -1.21330  -0.95410  -0.79116
 Alpha  occ. eigenvalues --   -0.76031  -0.65829  -0.61759  -0.56449  -0.55602
 Alpha  occ. eigenvalues --   -0.53675  -0.51710  -0.49724  -0.48172  -0.47034
 Alpha  occ. eigenvalues --   -0.44414  -0.43791  -0.42903  -0.40139
 Alpha virt. eigenvalues --    0.11495   0.12631   0.12925   0.13655   0.13780
 Alpha virt. eigenvalues --    0.14521   0.14728   0.15175   0.15567   0.15890
 Alpha virt. eigenvalues --    0.16803   0.17077   0.17338   0.18400   0.18571

 Mulliken charges:
               1
     1  C   -0.110459
     2  H    0.041154
     3  H    0.033585
     4  H    0.044556
     5  C   -0.145567
     6  H    0.060682
     7  H    0.062303
     8  C    0.077018
     9  H    0.045036
    10  O   -0.317141
    11  C   -0.105367
    12  H    0.191130
    13  H    0.061207
    14  H    0.048511
    15  C   -0.106960
    16  H    0.034478
    17  H    0.034945
    18  H    0.050889
 Sum of Mulliken charges =   0.00000

 Dipole moment (field-independent basis, Debye):
    X=              1.2463    Y=             -0.8606    Z=              0.5067  Tot=              1.5971
 N-N= 1.700423078613D+02 E-N=-2.545177569054D+02  KE=-5.968714820678D+01
 Leave Link  601 at Wed Sep  7 15:36:10 2022, MaxMem=   131072000 cpu:               0.0 elap:               0.0
 (Enter /opt/g16/l9999.exe)
 1\1\GINC-TOTEM2\FOpt\RPM3\ZDO\C5H12O1\JRAMOS\07-Sep-2022\0\\#p opt pm3
 \\Conformer number 019. Energy MM = 0.000 kcal/mol\\0,1\C,4.9739521828
 ,11.7382761381,7.9670016662\H,4.6343710901,12.7297362386,8.2944966607\
 H,6.064071141,11.6975063507,8.1285432464\H,4.5133608547,10.99576186,8.
 6297436011\C,4.6307852363,11.4778548803,6.5170624462\H,3.5465603595,11
 .6289639196,6.351162834\H,4.8299452058,10.4181096182,6.2611183494\C,5.
 424466475,12.4010466183,5.5743301988\H,5.2315000524,13.467843632,5.851

 Normal termination of Gaussian 16 at Wed Sep  7 15:36:10 2022.
