 Gaussian 16, Revision A.03,
 Gaussian 16:  ES64L-G16RevA.03 25-Dec-2016

 ----------
 #p opt pm3
 ----------

 ------------------------------------------------
 Conformer number 004. Energy MM = 0.000 kcal/mol
 ------------------------------------------------
 Symbolic Z-matrix:
 Charge =  0 Multiplicity = 1

 SCF Done:  E(RPM3) = -0.904180619449E-01 A.U. after   12 cycles
 SCF Done:  E(RPM3) = -0.111213742391     A.U. after   12 cycles
 SCF Done:  E(RPM3) = -0.115781736090     A.U. after   12 cycles
 SCF Done:  E(RPM3) = -0.116553325193     A.U. after   11 cycles
 SCF Done:  E(RPM3) = -0.117108984919     A.U. after   12 cycles
 SCF Done:  E(RPM3) = -0.117679686861     A.U. after   12 cycles
 SCF Done:  E(RPM3) = -0.118061680897     A.U. after   11 cycles
 SCF Done:  E(RPM3) = -0.118270293977     A.U. after   11 cycles
 SCF Done:  E(RPM3) = -0.118103565190     A.U. after   12 cycles
 SCF Done:  E(RPM3) = -0.118409826253     A.U. after   11 cycles
 SCF Done:  E(RPM3) = -0.118461677552     A.U. after   11 cycles
 SCF Done:  E(RPM3) = -0.118476893549     A.U. after   10 cycles
 SCF Done:  E(RPM3) = -0.118482777574     A.U. after   11 cycles
 SCF Done:  E(RPM3) = -0.118483329579     A.U. after    9 cycles
 Optimization completed.
    -- Stationary point found.

                         Standard orientation:
 ---------------------------------------------------------------------
 Center     Atomic      Atomic             Coordinates (Angstroms)
 Number     Number       Type             X           Y           Z
 ---------------------------------------------------------------------
      1          6           0        2.119710   -0.916749    0.189101
      2          1           0        1.515181   -1.776098   -0.148192
      3          1           0        2.225025   -0.999475    1.278661
      4          1           0        3.120181   -1.017291   -0.248442
      5          6           0        1.466331    0.385743   -0.215823
      6          1           0        1.511786    0.511292   -1.316019
      7          1           0        2.029931    1.241811    0.205141
      8          6           0        0.004197    0.438069    0.254723
      9          1           0       -0.038569    0.249155    1.356944
     10          8           0       -0.447088    1.758402    0.011592
     11          6           0       -0.841076   -0.615430   -0.482093
     12          1           0       -1.381514    1.756621    0.174443
     13          1           0       -0.986499   -0.317010   -1.539181
     14          1           0       -0.253164   -1.561098   -0.513382
     15          6           0       -2.176075   -0.855993    0.183744
     16          1           0       -2.800095    0.048687    0.196443
     17          1           0       -2.058391   -1.184759    1.225200
     18          1           0       -2.745687   -1.632889   -0.342267
 ---------------------------------------------------------------------

 The electronic state is 1-A.
 Alpha  occ. eigenvalues --   -1.48808  -1.26198  -1.19649  -0.93582  -0.82944
 Alpha  occ. eigenvalues --   -0.74482  -0.64729  -0.61265  -0.58735  -0.55696
 Alpha  occ. eigenvalues --   -0.53082  -0.51094  -0.49604  -0.48755  -0.47700
 Alpha  occ. eigenvalues --   -0.44359  -0.43960  -0.42576  -0.40116
 Alpha virt. eigenvalues --    0.11616   0.12653   0.13076   0.13452   0.13611
 Alpha virt. eigenvalues --    0.14651   0.14722   0.15278   0.15382   0.15725
 Alpha virt. eigenvalues --    0.16728   0.16978   0.17439   0.17845   0.18508

 Mulliken charges:
               1
     1  C   -0.114792
     2  H    0.041718
     3  H    0.038736
     4  H    0.041250
     5  C   -0.111964
     6  H    0.058507
     7  H    0.064018
     8  C    0.079185
     9  H    0.043420
    10  O   -0.313455
    11  C   -0.156082
    12  H    0.188154
    13  H    0.065015
    14  H    0.068781
    15  C   -0.106899
    16  H    0.032787
    17  H    0.039930
    18  H    0.041691
 Sum of Mulliken charges =  -0.00000

 Dipole moment (field-independent basis, Debye):
    X=             -0.7650    Y=             -1.3353    Z=              0.3272  Tot=              1.5733
 N-N= 1.705270742158D+02 E-N=-2.554452808456D+02  KE=-5.969916379328D+01
 Leave Link  601 at Wed Sep  7 15:33:35 2022, MaxMem=   131072000 cpu:               0.0 elap:               0.0
 (Enter /opt/g16/l9999.exe)
 1\1\GINC-TOTEM2\FOpt\RPM3\ZDO\C5H12O1\JRAMOS\07-Sep-2022\0\\#p opt pm3
 \\Conformer number 004. Energy MM = 0.000 kcal/mol\\0,1\C,-1.241456875
 3,15.5616525018,3.6136718048\H,-1.5836493265,14.5657296571,3.283905427
 2\H,-1.2841318769,16.2267073457,2.7413434615\H,-1.9609320772,15.936999
 2696,4.3512117375\C,0.15364964,15.4809326878,4.1920430286\H,0.13823668
 09,14.9309869725,5.1541151504\H,0.5246418575,16.4962604987,4.435316565
 6\C,1.1167310797,14.7912357239,3.2128690651\H,1.0804658429,15.31522834

 Normal termination of Gaussian 16 at Wed Sep  7 15:33:35 2022.
