 Gaussian 16, Revision A.03,
 Gaussian 16:  ES64L-G16RevA.03 25-Dec-2016

 ----------
 #p opt pm3
 ----------

 ------------------------------------------------
 Conformer number 007. Energy MM = 0.000 kcal/mol
 ------------------------------------------------
 Symbolic Z-matrix:
 Charge =  0 Multiplicity = 1

 SCF Done:  E(RPM3) = -0.798882277849E-01 A.U. after   12 cycles
 SCF Done:  E(RPM3) = -0.107172171629     A.U. after   12 cycles
 SCF Done:  E(RPM3) = -0.114709263241     A.U. after   12 cycles
 SCF Done:  E(RPM3) = -0.115661048480     A.U. after   11 cycles
 SCF Done:  E(RPM3) = -0.116108812322     A.U. after   11 cycles
 SCF Done:  E(RPM3) = -0.116818150577     A.U. after   12 cycles
 SCF Done:  E(RPM3) = -0.117090300466     A.U. after   12 cycles
 SCF Done:  E(RPM3) = -0.117211786310     A.U. after   11 cycles
 SCF Done:  E(RPM3) = -0.117222251150     A.U. after   11 cycles
 SCF Done:  E(RPM3) = -0.117246467909     A.U. after   11 cycles
 SCF Done:  E(RPM3) = -0.117548547238     A.U. after   11 cycles
 SCF Done:  E(RPM3) = -0.117571739557     A.U. after   11 cycles
 SCF Done:  E(RPM3) = -0.117626857553     A.U. after   11 cycles
 SCF Done:  E(RPM3) = -0.117647807009     A.U. after   10 cycles
 SCF Done:  E(RPM3) = -0.117657159282     A.U. after   11 cycles
 SCF Done:  E(RPM3) = -0.117662356414     A.U. after   10 cycles
 SCF Done:  E(RPM3) = -0.117665578279     A.U. after   10 cycles
 SCF Done:  E(RPM3) = -0.117666526823     A.U. after   10 cycles
 SCF Done:  E(RPM3) = -0.117666753468     A.U. after    9 cycles
 SCF Done:  E(RPM3) = -0.117666791328     A.U. after    8 cycles
 Optimization completed.
    -- Stationary point found.

                         Standard orientation:
 ---------------------------------------------------------------------
 Center     Atomic      Atomic             Coordinates (Angstroms)
 Number     Number       Type             X           Y           Z
 ---------------------------------------------------------------------
      1          6           0        2.500432   -0.112849    0.305190
      2          1           0        3.394966   -0.590688   -0.112087
      3          1           0        2.551255   -0.212358    1.397467
      4          1           0        2.559318    0.963604    0.073010
      5          6           0        1.233425   -0.719683   -0.255532
      6          1           0        1.137279   -1.771191    0.077572
      7          1           0        1.284398   -0.757514   -1.361962
      8          6           0       -0.013264    0.070309    0.183342
      9          1           0       -0.046836    0.118911    1.300707
     10          8           0        0.001481    1.399688   -0.308209
     11          6           0       -1.288732   -0.600502   -0.346068
     12          1           0        0.891815    1.715170   -0.186399
     13          1           0       -1.368900   -0.453500   -1.441658
     14          1           0       -1.207416   -1.695431   -0.194260
     15          6           0       -2.533414   -0.082916    0.338729
     16          1           0       -2.667408    0.994739    0.177893
     17          1           0       -2.499495   -0.249562    1.423838
     18          1           0       -3.431510   -0.585843   -0.042420
 ---------------------------------------------------------------------

 The electronic state is 1-A.
 Alpha  occ. eigenvalues --   -1.48625  -1.24038  -1.21329  -0.95407  -0.79118
 Alpha  occ. eigenvalues --   -0.76032  -0.65828  -0.61756  -0.56449  -0.55601
 Alpha  occ. eigenvalues --   -0.53680  -0.51710  -0.49721  -0.48172  -0.47036
 Alpha  occ. eigenvalues --   -0.44414  -0.43792  -0.42903  -0.40140
 Alpha virt. eigenvalues --    0.11495   0.12631   0.12926   0.13655   0.13780
 Alpha virt. eigenvalues --    0.14522   0.14728   0.15174   0.15567   0.15889
 Alpha virt. eigenvalues --    0.16802   0.17077   0.17338   0.18400   0.18570

 Mulliken charges:
               1
     1  C   -0.110463
     2  H    0.044557
     3  H    0.041153
     4  H    0.033585
     5  C   -0.145559
     6  H    0.060679
     7  H    0.062311
     8  C    0.077015
     9  H    0.045038
    10  O   -0.317142
    11  C   -0.105384
    12  H    0.191120
    13  H    0.061248
    14  H    0.048523
    15  C   -0.106980
    16  H    0.050870
    17  H    0.034471
    18  H    0.034959
 Sum of Mulliken charges =  -0.00000

 Dipole moment (field-independent basis, Debye):
    X=              1.2453    Y=             -0.8612    Z=              0.5076  Tot=              1.5969
 N-N= 1.700402132885D+02 E-N=-2.545135257744D+02  KE=-5.968716275525D+01
 Leave Link  601 at Wed Sep  7 15:33:49 2022, MaxMem=   131072000 cpu:               0.0 elap:               0.0
 (Enter /opt/g16/l9999.exe)
 1\1\GINC-TOTEM2\FOpt\RPM3\ZDO\C5H12O1\JRAMOS\07-Sep-2022\0\\#p opt pm3
 \\Conformer number 007. Energy MM = 0.000 kcal/mol\\0,1\C,4.993353011,
 6.6844926546,15.3053574291\H,5.2479319082,7.6004201636,15.8520816332\H
 ,4.6849579567,5.9331212751,16.0441996652\H,4.1134672165,6.9050833951,1
 4.6782470434\C,6.1520992199,6.2003064692,14.4622482449\H,6.9880790388,
 5.8815442255,15.1144754044\H,6.5503801955,7.0309579818,13.8461264289\C
 ,5.7383375807,5.0278687276,13.5538843251\H,5.3208965229,4.2015701159,1

 Normal termination of Gaussian 16 at Wed Sep  7 15:33:49 2022.
