 Gaussian 16, Revision A.03,
 Gaussian 16:  ES64L-G16RevA.03 25-Dec-2016

 ----------
 #p opt pm3
 ----------

 ------------------------------------------------
 Conformer number 015. Energy MM = 0.000 kcal/mol
 ------------------------------------------------
 Symbolic Z-matrix:
 Charge =  0 Multiplicity = 1

 SCF Done:  E(RPM3) = -0.831454979623E-01 A.U. after   13 cycles
 SCF Done:  E(RPM3) = -0.112102749496     A.U. after   12 cycles
 SCF Done:  E(RPM3) = -0.116610814992     A.U. after   12 cycles
 SCF Done:  E(RPM3) = -0.117417241840     A.U. after   11 cycles
 SCF Done:  E(RPM3) = -0.118281242202     A.U. after   12 cycles
 SCF Done:  E(RPM3) = -0.119127059988     A.U. after   12 cycles
 SCF Done:  E(RPM3) = -0.119524604996     A.U. after   11 cycles
 SCF Done:  E(RPM3) = -0.119686982783     A.U. after   11 cycles
 SCF Done:  E(RPM3) = -0.119689956917     A.U. after   10 cycles
 SCF Done:  E(RPM3) = -0.119692517902     A.U. after   10 cycles
 SCF Done:  E(RPM3) = -0.119693428500     A.U. after    9 cycles
 SCF Done:  E(RPM3) = -0.119693673235     A.U. after    9 cycles
 SCF Done:  E(RPM3) = -0.119693854074     A.U. after    9 cycles
 Optimization completed.
    -- Stationary point found.

                         Standard orientation:
 ---------------------------------------------------------------------
 Center     Atomic      Atomic             Coordinates (Angstroms)
 Number     Number       Type             X           Y           Z
 ---------------------------------------------------------------------
      1          6           0        2.522093   -0.108523    0.321684
      2          1           0        2.665890    0.953547    0.082500
      3          1           0        3.407880   -0.649356   -0.035334
      4          1           0        2.501915   -0.195637    1.416258
      5          6           0        1.259503   -0.656142   -0.302659
      6          1           0        1.162978   -1.733646   -0.063197
      7          1           0        1.326098   -0.600828   -1.408087
      8          6           0       -0.000101    0.080033    0.186723
      9          1           0       -0.000495    0.154446    1.298966
     10          8           0        0.000559    1.439124   -0.186431
     11          6           0       -1.259869   -0.655228   -0.303614
     12          1           0        0.000727    1.472102   -1.135321
     13          1           0       -1.326804   -0.598020   -1.408942
     14          1           0       -1.163413   -1.733167   -0.066096
     15          6           0       -2.522203   -0.108519    0.322051
     16          1           0       -2.502772   -0.199816    1.416301
     17          1           0       -3.408402   -0.646967   -0.037531
     18          1           0       -2.664621    0.954621    0.086827
 ---------------------------------------------------------------------

 The electronic state is 1-A.
 Alpha  occ. eigenvalues --   -1.48604  -1.24175  -1.21241  -0.94878  -0.78945
 Alpha  occ. eigenvalues --   -0.78586  -0.62886  -0.61512  -0.59183  -0.55241
 Alpha  occ. eigenvalues --   -0.53175  -0.51804  -0.48669  -0.48490  -0.46941
 Alpha  occ. eigenvalues --   -0.44129  -0.43606  -0.43403  -0.40750
 Alpha virt. eigenvalues --    0.11336   0.12739   0.13404   0.13923   0.14084
 Alpha virt. eigenvalues --    0.14276   0.14686   0.15318   0.15748   0.16149
 Alpha virt. eigenvalues --    0.17205   0.17295   0.17464   0.17618   0.18356

 Mulliken charges:
               1
     1  C   -0.106994
     2  H    0.047915
     3  H    0.036069
     4  H    0.040116
     5  C   -0.132987
     6  H    0.055684
     7  H    0.048961
     8  C    0.070314
     9  H    0.075479
    10  O   -0.304916
    11  C   -0.132982
    12  H    0.181593
    13  H    0.048968
    14  H    0.055688
    15  C   -0.107028
    16  H    0.040082
    17  H    0.036077
    18  H    0.047961
 Sum of Mulliken charges =  -0.00000

 Dipole moment (field-independent basis, Debye):
    X=             -0.0005    Y=             -1.1961    Z=             -0.8672  Tot=              1.4774
 N-N= 1.698634452929D+02 E-N=-2.541587964051D+02  KE=-5.968309064395D+01
 Leave Link  601 at Wed Sep  7 15:35:20 2022, MaxMem=   131072000 cpu:               0.0 elap:               0.0
 (Enter /opt/g16/l9999.exe)
 1\1\GINC-TOTEM2\FOpt\RPM3\ZDO\C5H12O1\JRAMOS\07-Sep-2022\0\\#p opt pm3
 \\Conformer number 015. Energy MM = 0.000 kcal/mol\\0,1\C,1.1353678319
 ,7.7592618166,9.8526677635\H,1.4756696912,7.4030322543,8.8712530961\H,
 0.4194011486,7.0231387163,10.2400886241\H,2.0070098301,7.7542279531,10
 .5207263152\C,0.5117421174,9.1329162391,9.7632831749\H,0.1564862773,9.
 4462495628,10.7649263287\H,-0.3926833177,9.099799584,9.122671885\C,1.4
 971683288,10.1873967413,9.229376447\H,2.4660403832,10.1280872335,9.777

 Normal termination of Gaussian 16 at Wed Sep  7 15:35:20 2022.
