 Gaussian 16, Revision A.03,
 Gaussian 16:  EM64L-G16RevA.03 25-Dec-2016

 -----------------------------
 #p opt=loose m062x/6-31g(d,p)
 -----------------------------

 --------------------------------------------------
 Conformer number 1088. Energy MM = 72.083 kcal/mol
 --------------------------------------------------
 Symbolic Z-matrix:
 Charge =  0 Multiplicity = 1

 SCF Done:  E(RM062X) =  -1374.30202680     A.U. after   14 cycles
 SCF Done:  E(RM062X) =  -1374.30876081     A.U. after   12 cycles
 SCF Done:  E(RM062X) =  -1374.30944347     A.U. after   12 cycles
 SCF Done:  E(RM062X) =  -1374.30945041     A.U. after   12 cycles
 SCF Done:  E(RM062X) =  -1374.30954935     A.U. after   12 cycles
 SCF Done:  E(RM062X) =  -1374.30959524     A.U. after   10 cycles
 SCF Done:  E(RM062X) =  -1374.30959543     A.U. after    8 cycles
 Optimization completed.
    -- Stationary point found.

                         Standard orientation:
 ---------------------------------------------------------------------
 Center     Atomic      Atomic             Coordinates (Angstroms)
 Number     Number       Type             X           Y           Z
 ---------------------------------------------------------------------
      1          6           0        1.643502   -0.586091   -0.426350
      2          6           0        4.877888    1.374616   -0.206039
      3          1           0        5.251778    2.392633   -0.211598
      4          6           0        3.522044    1.099811   -0.320216
      5          1           0        2.799359    1.901218   -0.418532
      6          6           0        3.086412   -0.227205   -0.308027
      7          6           0        4.001192   -1.274080   -0.182232
      8          1           0        3.628430   -2.292529   -0.176517
      9          6           0        5.356844   -0.998422   -0.069294
     10          1           0        6.080636   -1.798951    0.028169
     11          6           0        5.792724    0.328188   -0.081236
     12          8           0        7.656844    1.820049    0.031003
     13          6           0        7.238989    0.686545    0.036517
     14          8           0        8.027332   -0.391895    0.148415
     15          8           0        0.854068    0.498029   -0.547262
     16          8           0        1.221245   -1.718107   -0.417251
     17          6           0        9.431403   -0.114781    0.263596
     18          1           0        9.592975    0.519001    1.140363
     19          1           0        9.750089    0.451979   -0.616019
     20          6           0       10.142540   -1.444602    0.377858
     21          1           0       11.219256   -1.284356    0.467725
     22          1           0        9.798223   -1.990606    1.258816
     23          1           0        9.955534   -2.058047   -0.506160
     24          6           0       -8.936876   -0.559646   -0.100294
     25          6           0       -5.717133    1.420495    0.120237
     26          1           0       -5.350988    2.441264    0.111446
     27          6           0       -7.070686    1.135270    0.004470
     28          1           0       -7.799077    1.931113   -0.098433
     29          6           0       -7.496233   -0.194622    0.020691
     30          6           0       -6.575536   -1.235116    0.152459
     31          1           0       -6.942301   -2.255710    0.161121
     32          6           0       -5.222172   -0.950209    0.269107
     33          1           0       -4.493902   -1.745824    0.372491
     34          6           0       -4.796261    0.379981    0.252631
     35          8           0       -2.941509    1.883777    0.361363
     36          6           0       -3.355144    0.748805    0.373000
     37          8           0       -2.560227   -0.329769    0.498309
     38          8           0       -9.740579    0.512802   -0.221353
     39          8           0       -9.358222   -1.690376   -0.090264
     40          6           0       -1.164194   -0.062762    0.654585
     41          1           0       -1.019530    0.783106    1.330428
     42          1           0       -0.734615   -0.971776    1.075060
     43          6           0       -0.542864    0.238230   -0.703014
     44          1           0       -0.968958    1.149666   -1.121905
     45          1           0       -0.692431   -0.606155   -1.379681
     46          1           0      -10.644736    0.171466   -0.291154
 ---------------------------------------------------------------------

 The electronic state is 1-A.
 Alpha  occ. eigenvalues --  -19.69992 -19.69881 -19.69573 -19.69013 -19.64376
 Alpha  occ. eigenvalues --  -19.64240 -19.64064 -19.63489 -10.69581 -10.69555
 Alpha  occ. eigenvalues --  -10.69439 -10.68682 -10.61399 -10.61351 -10.60932
 Alpha  occ. eigenvalues --  -10.58279 -10.58229 -10.58001 -10.57871 -10.57391
 Alpha  occ. eigenvalues --  -10.57360 -10.57204 -10.57172 -10.57110 -10.57055
 Alpha  occ. eigenvalues --  -10.56948 -10.56826 -10.54894  -1.24904  -1.24400
 Alpha  occ. eigenvalues --   -1.24330  -1.23847  -1.15240  -1.14931  -1.14510
 Alpha  occ. eigenvalues --   -1.14224  -0.98662  -0.98376  -0.90931  -0.89768
 Alpha  occ. eigenvalues --   -0.87931  -0.86505  -0.86268  -0.85798  -0.80327
 Alpha  occ. eigenvalues --   -0.76967  -0.75350  -0.72164  -0.71598  -0.70308
 Alpha  occ. eigenvalues --   -0.68975  -0.66727  -0.65638  -0.65143  -0.63657
 Alpha  occ. eigenvalues --   -0.62860  -0.60832  -0.60104  -0.58641  -0.58005
 Alpha  occ. eigenvalues --   -0.57820  -0.57466  -0.56227  -0.55723  -0.54262
 Alpha  occ. eigenvalues --   -0.54151  -0.53643  -0.53214  -0.52952  -0.52028
 Alpha  occ. eigenvalues --   -0.51679  -0.50750  -0.50547  -0.50432  -0.50103
 Alpha  occ. eigenvalues --   -0.48587  -0.48216  -0.47068  -0.46390  -0.45870
 Alpha  occ. eigenvalues --   -0.44963  -0.44786  -0.44497  -0.44168  -0.42728
 Alpha  occ. eigenvalues --   -0.42663  -0.42040  -0.41514  -0.41127  -0.40151
 Alpha  occ. eigenvalues --   -0.39923  -0.37338  -0.36829  -0.36500  -0.36140
 Alpha  occ. eigenvalues --   -0.35856  -0.35485  -0.32701  -0.32383  -0.32325
 Alpha  occ. eigenvalues --   -0.32099
 Alpha virt. eigenvalues --   -0.04177  -0.03815   0.01641   0.01910   0.05346
 Alpha virt. eigenvalues --    0.05653   0.11690   0.12531   0.13001   0.13089
 Alpha virt. eigenvalues --    0.13849   0.14895   0.15771   0.16849   0.17560

 Mulliken charges:
               1
     1  C    0.642449
     2  C   -0.125085
     3  H    0.163367
     4  C   -0.122912
     5  H    0.158797
     6  C   -0.033241
     7  C   -0.124924
     8  H    0.161487
     9  C   -0.122965
    10  H    0.155061
    11  C   -0.031796
    12  O   -0.494102
    13  C    0.650274
    14  O   -0.517978
    15  O   -0.518926
    16  O   -0.493265
    17  C    0.022199
    18  H    0.141911
    19  H    0.141953
    20  C   -0.388159
    21  H    0.134234
    22  H    0.140974
    23  H    0.141075
    24  C    0.602945
    25  C   -0.122674
    26  H    0.163504
    27  C   -0.125643
    28  H    0.160397
    29  C   -0.016218
    30  C   -0.127641
    31  H    0.165130
    32  C   -0.120615
    33  H    0.160514
    34  C   -0.034608
    35  O   -0.491890
    36  C    0.643750
    37  O   -0.518780
    38  O   -0.534930
    39  O   -0.478982
    40  C   -0.004986
    41  H    0.158369
    42  H    0.167466
    43  C   -0.004412
    44  H    0.167039
    45  H    0.158113
    46  H    0.353723
 Sum of Mulliken charges =  -0.00000

 Dipole moment (field-independent basis, Debye):
    X=              0.7898    Y=             -0.3621    Z=              0.0719  Tot=              0.8718
 Quadrupole moment (field-independent basis, Debye-Ang):
   XX=           -122.0956   YY=           -167.0907   ZZ=           -158.3298
   XY=            -25.6597   XZ=              4.0866   YZ=             -2.1936

 Normal termination of Gaussian 16 at Tue Jul 27 20:01:39 2021.
