 Gaussian 16, Revision A.03,
 Gaussian 16:  EM64L-G16RevA.03 25-Dec-2016

 -----------------------------
 #p opt=loose m062x/6-31g(d,p)
 -----------------------------

 --------------------------------------------------
 Conformer number 1983. Energy MM = 71.187 kcal/mol
 --------------------------------------------------
 Symbolic Z-matrix:
 Charge =  0 Multiplicity = 1

 SCF Done:  E(RM062X) =  -1374.30445589     A.U. after   15 cycles
 SCF Done:  E(RM062X) =  -1374.31035313     A.U. after   13 cycles
 SCF Done:  E(RM062X) =  -1374.31103555     A.U. after   13 cycles
 SCF Done:  E(RM062X) =  -1374.31107038     A.U. after   12 cycles
 SCF Done:  E(RM062X) =  -1374.31113030     A.U. after   12 cycles
 SCF Done:  E(RM062X) =  -1374.31119148     A.U. after   12 cycles
 SCF Done:  E(RM062X) =  -1374.31119225     A.U. after   10 cycles
 SCF Done:  E(RM062X) =  -1374.31119152     A.U. after   10 cycles
 SCF Done:  E(RM062X) =  -1374.31119268     A.U. after    8 cycles
 SCF Done:  E(RM062X) =  -1374.31119283     A.U. after    8 cycles
 Optimization completed.
    -- Stationary point found.

                         Standard orientation:
 ---------------------------------------------------------------------
 Center     Atomic      Atomic             Coordinates (Angstroms)
 Number     Number       Type             X           Y           Z
 ---------------------------------------------------------------------
      1          6           0       -1.324156   -2.621351   -0.089968
      2          6           0       -3.010106    0.557919    1.094907
      3          1           0       -2.852780    1.402202    1.757183
      4          6           0       -2.060170   -0.445481    0.961237
      5          1           0       -1.131591   -0.409457    1.518577
      6          6           0       -2.305942   -1.513789    0.095647
      7          6           0       -3.494571   -1.578417   -0.633265
      8          1           0       -3.652411   -2.421715   -1.296684
      9          6           0       -4.444545   -0.575430   -0.498108
     10          1           0       -5.373215   -0.610586   -1.055362
     11          6           0       -4.199413    0.492578    0.367663
     12          8           0       -5.010527    2.542287    1.292024
     13          6           0       -5.184331    1.600996    0.554900
     14          8           0       -6.288505    1.437360   -0.187439
     15          8           0       -0.229640   -2.472089    0.675582
     16          8           0       -1.488131   -3.555324   -0.840483
     17          6           0       -7.275771    2.471165   -0.052235
     18          1           0       -7.573478    2.536318    0.998289
     19          1           0       -6.821331    3.427740   -0.326000
     20          6           0       -8.432934    2.106323   -0.954970
     21          1           0       -8.103908    2.039404   -1.994211
     22          1           0       -9.213133    2.867685   -0.886132
     23          1           0       -8.859920    1.144429   -0.663089
     24          6           0        5.773650    3.257193   -0.259311
     25          6           0        5.091750   -0.347143    0.678109
     26          1           0        5.490728   -1.151985    1.285668
     27          6           0        5.706244    0.896568    0.628649
     28          1           0        6.605596    1.094846    1.199908
     29          6           0        5.156231    1.903178   -0.167785
     30          6           0        3.998368    1.669891   -0.911185
     31          1           0        3.599343    2.475376   -1.517960
     32          6           0        3.384052    0.426190   -0.862167
     33          1           0        2.484061    0.227799   -1.432022
     34          6           0        3.934482   -0.580976   -0.066140
     35          8           0        3.755939   -2.833548    0.712099
     36          6           0        3.319330   -1.937548    0.027529
     37          8           0        2.222919   -2.058358   -0.738979
     38          8           0        6.881449    3.379885    0.494836
     39          8           0        5.342151    4.161013   -0.932515
     40          6           0        1.577983   -3.335619   -0.704910
     41          1           0        0.937371   -3.362546   -1.585920
     42          1           0        2.327718   -4.129290   -0.756819
     43          6           0        0.755845   -3.502609    0.558128
     44          1           0        0.268229   -4.480763    0.545278
     45          1           0        1.385958   -3.406390    1.441869
     46          1           0        7.201559    4.285299    0.366064
 ---------------------------------------------------------------------

 The electronic state is 1-A.
 Alpha  occ. eigenvalues --  -19.69741 -19.69635 -19.69493 -19.68949 -19.64214
 Alpha  occ. eigenvalues --  -19.64088 -19.63980 -19.63417 -10.69471 -10.69422
 Alpha  occ. eigenvalues --  -10.69289 -10.68611 -10.61547 -10.61497 -10.60879
 Alpha  occ. eigenvalues --  -10.58146 -10.58127 -10.57882 -10.57784 -10.57292
 Alpha  occ. eigenvalues --  -10.57246 -10.57091 -10.57070 -10.57010 -10.56971
 Alpha  occ. eigenvalues --  -10.56853 -10.56741 -10.54849  -1.24968  -1.24248
 Alpha  occ. eigenvalues --   -1.24067  -1.23781  -1.15151  -1.14589  -1.14424
 Alpha  occ. eigenvalues --   -1.14152  -0.98552  -0.98279  -0.90927  -0.89667
 Alpha  occ. eigenvalues --   -0.87931  -0.86454  -0.86187  -0.85757  -0.80237
 Alpha  occ. eigenvalues --   -0.77027  -0.75319  -0.72166  -0.71493  -0.70608
 Alpha  occ. eigenvalues --   -0.69053  -0.67096  -0.65648  -0.63979  -0.62977
 Alpha  occ. eigenvalues --   -0.62301  -0.60642  -0.60267  -0.58828  -0.58178
 Alpha  occ. eigenvalues --   -0.57945  -0.57149  -0.56741  -0.55654  -0.54179
 Alpha  occ. eigenvalues --   -0.54048  -0.53464  -0.53140  -0.52813  -0.51974
 Alpha  occ. eigenvalues --   -0.51499  -0.50647  -0.50505  -0.50383  -0.50204
 Alpha  occ. eigenvalues --   -0.48638  -0.48346  -0.47018  -0.46306  -0.44996
 Alpha  occ. eigenvalues --   -0.44851  -0.44632  -0.44211  -0.44121  -0.43033
 Alpha  occ. eigenvalues --   -0.42596  -0.42453  -0.41556  -0.41125  -0.39943
 Alpha  occ. eigenvalues --   -0.39589  -0.37278  -0.37071  -0.36333  -0.36056
 Alpha  occ. eigenvalues --   -0.35633  -0.35415  -0.32590  -0.32280  -0.32226
 Alpha  occ. eigenvalues --   -0.32009
 Alpha virt. eigenvalues --   -0.04056  -0.03713   0.01745   0.01998   0.05462
 Alpha virt. eigenvalues --    0.05737   0.11869   0.13022   0.13122   0.13530
 Alpha virt. eigenvalues --    0.14241   0.15076   0.16331   0.16500   0.17039

 Mulliken charges:
               1
     1  C    0.647169
     2  C   -0.125383
     3  H    0.163133
     4  C   -0.122386
     5  H    0.158094
     6  C   -0.032207
     7  C   -0.125350
     8  H    0.160871
     9  C   -0.123011
    10  H    0.154621
    11  C   -0.031883
    12  O   -0.494302
    13  C    0.650086
    14  O   -0.518069
    15  O   -0.510314
    16  O   -0.499657
    17  C    0.022353
    18  H    0.141874
    19  H    0.141883
    20  C   -0.388121
    21  H    0.140945
    22  H    0.134109
    23  H    0.140940
    24  C    0.602761
    25  C   -0.123094
    26  H    0.162816
    27  C   -0.125660
    28  H    0.159935
    29  C   -0.016274
    30  C   -0.127919
    31  H    0.164894
    32  C   -0.120036
    33  H    0.159967
    34  C   -0.033503
    35  O   -0.498510
    36  C    0.648573
    37  O   -0.510070
    38  O   -0.535084
    39  O   -0.479216
    40  C   -0.011894
    41  H    0.171536
    42  H    0.156151
    43  C   -0.011573
    44  H    0.156182
    45  H    0.171079
    46  H    0.353545
 Sum of Mulliken charges =  -0.00000

 Dipole moment (field-independent basis, Debye):
    X=             -0.7637    Y=              0.0378    Z=             -0.2563  Tot=              0.8064
 Quadrupole moment (field-independent basis, Debye-Ang):
   XX=           -125.3666   YY=           -163.9796   ZZ=           -160.0786
   XY=              1.9983   XZ=             10.9033   YZ=              0.5549

 Normal termination of Gaussian 16 at Tue Jul 27 20:48:42 2021.
