 Gaussian 16, Revision A.03,
 Gaussian 16:  EM64L-G16RevA.03 25-Dec-2016

 -----------------------------
 #p opt=loose m062x/6-31g(d,p)
 -----------------------------

 --------------------------------------------------
 Conformer number 1387. Energy MM = 72.118 kcal/mol
 --------------------------------------------------
 Symbolic Z-matrix:
 Charge =  0 Multiplicity = 1

 SCF Done:  E(RM062X) =  -1374.30196882     A.U. after   14 cycles
 SCF Done:  E(RM062X) =  -1374.30872395     A.U. after   13 cycles
 SCF Done:  E(RM062X) =  -1374.30940627     A.U. after   11 cycles
 SCF Done:  E(RM062X) =  -1374.30943021     A.U. after   12 cycles
 SCF Done:  E(RM062X) =  -1374.30950217     A.U. after   11 cycles
 SCF Done:  E(RM062X) =  -1374.30955804     A.U. after   10 cycles
 SCF Done:  E(RM062X) =  -1374.30955852     A.U. after    8 cycles
 Optimization completed.
    -- Stationary point found.

                         Standard orientation:
 ---------------------------------------------------------------------
 Center     Atomic      Atomic             Coordinates (Angstroms)
 Number     Number       Type             X           Y           Z
 ---------------------------------------------------------------------
      1          6           0       -1.636870   -0.572217   -0.421581
      2          6           0       -4.882389    1.370716   -0.207661
      3          1           0       -5.261986    2.386606   -0.215324
      4          6           0       -3.524886    1.103392   -0.319868
      5          1           0       -2.806632    1.908711   -0.418695
      6          6           0       -3.081821   -0.221139   -0.305111
      7          6           0       -3.990842   -1.272935   -0.178655
      8          1           0       -3.612371   -2.289262   -0.170979
      9          6           0       -5.348130   -1.004761   -0.067640
     10          1           0       -6.067535   -1.809180    0.030272
     11          6           0       -5.791452    0.319357   -0.082223
     12          8           0       -7.663985    1.800928    0.025118
     13          6           0       -7.239841    0.669794    0.033142
     14          8           0       -8.022248   -0.412844    0.146297
     15          8           0       -0.853214    0.515972   -0.542872
     16          8           0       -1.208501   -1.701975   -0.410822
     17          6           0       -9.427985   -0.143298    0.259307
     18          1           0       -9.748819    0.419684   -0.621949
     19          1           0       -9.594055    0.491570    1.134440
     20          6           0      -10.131848   -1.476787    0.375803
     21          1           0      -11.209537   -1.322296    0.464067
     22          1           0       -9.940431   -2.091211   -0.506592
     23          1           0       -9.785538   -2.018850    1.258414
     24          6           0        8.961186   -0.414837   -0.115434
     25          6           0        5.718243    1.456833    0.115101
     26          1           0        5.351702    2.477418    0.103895
     27          6           0        7.069650    1.169325   -0.002784
     28          1           0        7.810544    1.953920   -0.110779
     29          6           0        7.498150   -0.159282    0.016212
     30          6           0        6.579967   -1.201645    0.153589
     31          1           0        6.930713   -2.226980    0.166402
     32          6           0        5.225903   -0.913864    0.272468
     33          1           0        4.498224   -1.709483    0.379963
     34          6           0        4.798497    0.415016    0.252801
     35          8           0        2.941159    1.915333    0.360479
     36          6           0        3.356893    0.781288    0.374502
     37          8           0        2.563855   -0.298509    0.503875
     38          8           0        9.269553   -1.724456   -0.084299
     39          8           0        9.796549    0.447117   -0.238920
     40          6           0        1.167522   -0.033284    0.660286
     41          1           0        1.021823    0.813775    1.334396
     42          1           0        0.739564   -0.942086    1.082899
     43          6           0        0.545147    0.263454   -0.697762
     44          1           0        0.699364   -0.580867   -1.373472
     45          1           0        0.966703    1.176623   -1.117440
     46          1           0       10.232355   -1.781374   -0.177316
 ---------------------------------------------------------------------

 The electronic state is 1-A.
 Alpha  occ. eigenvalues --  -19.70000 -19.69900 -19.69578 -19.69026 -19.64378
 Alpha  occ. eigenvalues --  -19.64263 -19.64065 -19.63501 -10.69581 -10.69554
 Alpha  occ. eigenvalues --  -10.69461 -10.68694 -10.61416 -10.61366 -10.60945
 Alpha  occ. eigenvalues --  -10.58281 -10.58231 -10.58017 -10.57886 -10.57459
 Alpha  occ. eigenvalues --  -10.57380 -10.57186 -10.57125 -10.57106 -10.57072
 Alpha  occ. eigenvalues --  -10.56966 -10.56840 -10.54908  -1.24914  -1.24414
 Alpha  occ. eigenvalues --   -1.24331  -1.23859  -1.15249  -1.14947  -1.14511
 Alpha  occ. eigenvalues --   -1.14237  -0.98664  -0.98392  -0.90940  -0.89773
 Alpha  occ. eigenvalues --   -0.87951  -0.86562  -0.86245  -0.85790  -0.80304
 Alpha  occ. eigenvalues --   -0.77020  -0.75470  -0.72223  -0.71208  -0.70190
 Alpha  occ. eigenvalues --   -0.69251  -0.66797  -0.65779  -0.65159  -0.63714
 Alpha  occ. eigenvalues --   -0.62963  -0.60837  -0.59671  -0.58363  -0.58152
 Alpha  occ. eigenvalues --   -0.58017  -0.57598  -0.56340  -0.55765  -0.54278
 Alpha  occ. eigenvalues --   -0.54176  -0.53384  -0.53002  -0.52982  -0.52292
 Alpha  occ. eigenvalues --   -0.51853  -0.50874  -0.50560  -0.50442  -0.49901
 Alpha  occ. eigenvalues --   -0.48610  -0.48235  -0.47169  -0.46477  -0.45922
 Alpha  occ. eigenvalues --   -0.44959  -0.44715  -0.44400  -0.44164  -0.42739
 Alpha  occ. eigenvalues --   -0.42677  -0.42050  -0.41531  -0.41144  -0.40156
 Alpha  occ. eigenvalues --   -0.39938  -0.37351  -0.36851  -0.36572  -0.36137
 Alpha  occ. eigenvalues --   -0.35823  -0.35497  -0.32645  -0.32443  -0.32337
 Alpha  occ. eigenvalues --   -0.32115
 Alpha virt. eigenvalues --   -0.04177  -0.03832   0.01639   0.01895   0.05345
 Alpha virt. eigenvalues --    0.05638   0.11742   0.12441   0.12998   0.13071
 Alpha virt. eigenvalues --    0.13825   0.14881   0.15795   0.16828   0.17534

 Mulliken charges:
               1
     1  C    0.642480
     2  C   -0.125082
     3  H    0.163519
     4  C   -0.122903
     5  H    0.158976
     6  C   -0.033233
     7  C   -0.124943
     8  H    0.161267
     9  C   -0.122947
    10  H    0.154991
    11  C   -0.031796
    12  O   -0.493999
    13  C    0.650290
    14  O   -0.518032
    15  O   -0.518805
    16  O   -0.493649
    17  C    0.022187
    18  H    0.141989
    19  H    0.141964
    20  C   -0.388157
    21  H    0.134270
    22  H    0.141032
    23  H    0.140929
    24  C    0.603189
    25  C   -0.122042
    26  H    0.164614
    27  C   -0.127039
    28  H    0.165759
    29  C   -0.016267
    30  C   -0.126283
    31  H    0.159747
    32  C   -0.121245
    33  H    0.159417
    34  C   -0.034697
    35  O   -0.490955
    36  C    0.643885
    37  O   -0.519530
    38  O   -0.535589
    39  O   -0.478416
    40  C   -0.005003
    41  H    0.158579
    42  H    0.167030
    43  C   -0.004386
    44  H    0.157748
    45  H    0.167456
    46  H    0.353682
 Sum of Mulliken charges =  -0.00000

 Dipole moment (field-independent basis, Debye):
    X=             -1.3359    Y=             -2.9899    Z=              0.2463  Tot=              3.2840
 Quadrupole moment (field-independent basis, Debye-Ang):
   XX=           -134.5277   YY=           -161.9077   ZZ=           -158.4274
   XY=             -3.3133   XZ=             -2.0053   YZ=             -1.5473

 Normal termination of Gaussian 16 at Tue Jul 27 20:02:12 2021.
