 Gaussian 16, Revision A.03,
 Gaussian 16:  EM64L-G16RevA.03 25-Dec-2016

 -----------------------------
 #p opt=loose m062x/6-31g(d,p)
 -----------------------------

 -------------------------------------------------
 Conformer number 361. Energy MM = 72.118 kcal/mol
 -------------------------------------------------
 Symbolic Z-matrix:
 Charge =  0 Multiplicity = 1

 SCF Done:  E(RM062X) =  -1374.30197057     A.U. after   14 cycles
 SCF Done:  E(RM062X) =  -1374.30872380     A.U. after   13 cycles
 SCF Done:  E(RM062X) =  -1374.30940704     A.U. after   11 cycles
 SCF Done:  E(RM062X) =  -1374.30943540     A.U. after   12 cycles
 SCF Done:  E(RM062X) =  -1374.30949913     A.U. after   11 cycles
 SCF Done:  E(RM062X) =  -1374.30955804     A.U. after   10 cycles
 SCF Done:  E(RM062X) =  -1374.30955853     A.U. after    8 cycles
 Optimization completed.
    -- Stationary point found.

                         Standard orientation:
 ---------------------------------------------------------------------
 Center     Atomic      Atomic             Coordinates (Angstroms)
 Number     Number       Type             X           Y           Z
 ---------------------------------------------------------------------
      1          6           0        1.636862   -0.572165   -0.421445
      2          6           0        4.882409    1.370724   -0.207549
      3          1           0        5.262023    2.386608   -0.215215
      4          6           0        3.524901    1.103420   -0.319746
      5          1           0        2.806655    1.908747   -0.418566
      6          6           0        3.081818   -0.221106   -0.304987
      7          6           0        3.990825   -1.272916   -0.178541
      8          1           0        3.612338   -2.289237   -0.170866
      9          6           0        5.348119   -1.004761   -0.067535
     10          1           0        6.067515   -1.809187    0.030372
     11          6           0        5.791457    0.319352   -0.082117
     12          8           0        7.664027    1.800891    0.025069
     13          6           0        7.239853    0.669768    0.033247
     14          8           0        8.022255   -0.412886    0.146261
     15          8           0        0.853220    0.516035   -0.542740
     16          8           0        1.208481   -1.701919   -0.410737
     17          6           0        9.428013   -0.143370    0.259092
     18          1           0        9.748737    0.419650   -0.622179
     19          1           0        9.594212    0.491455    1.134231
     20          6           0       10.131869   -1.476876    0.375430
     21          1           0        9.785668   -2.018973    1.258062
     22          1           0        9.940323   -2.091253   -0.506969
     23          1           0       11.209572   -1.322407    0.463556
     24          6           0       -8.961170   -0.414917   -0.115621
     25          6           0       -5.718274    1.456828    0.114988
     26          1           0       -5.351749    2.477419    0.103750
     27          6           0       -7.069670    1.169289   -0.002944
     28          1           0       -7.810576    1.953862   -0.111014
     29          6           0       -7.498145   -0.159326    0.016092
     30          6           0       -6.579949   -1.201665    0.153564
     31          1           0       -6.930677   -2.227006    0.166407
     32          6           0       -5.225896   -0.913853    0.272490
     33          1           0       -4.498204   -1.709451    0.380056
     34          6           0       -4.798515    0.415035    0.252780
     35          8           0       -2.941205    1.915390    0.360453
     36          6           0       -3.356922    0.781340    0.374531
     37          8           0       -2.563868   -0.298437    0.503963
     38          8           0       -9.269530   -1.724531   -0.084247
     39          8           0       -9.796558    0.447021   -0.239036
     40          6           0       -1.167542   -0.033185    0.660393
     41          1           0       -0.739579   -0.941973    1.083029
     42          1           0       -1.021873    0.813892    1.334488
     43          6           0       -0.545142    0.263534   -0.697649
     44          1           0       -0.966678    1.176706   -1.117340
     45          1           0       -0.699360   -0.580794   -1.373351
     46          1           0      -10.232337   -1.781471   -0.177187
 ---------------------------------------------------------------------

 The electronic state is 1-A.
 Alpha  occ. eigenvalues --  -19.70000 -19.69900 -19.69578 -19.69026 -19.64378
 Alpha  occ. eigenvalues --  -19.64263 -19.64065 -19.63501 -10.69581 -10.69554
 Alpha  occ. eigenvalues --  -10.69461 -10.68694 -10.61416 -10.61366 -10.60945
 Alpha  occ. eigenvalues --  -10.58281 -10.58231 -10.58017 -10.57886 -10.57459
 Alpha  occ. eigenvalues --  -10.57380 -10.57186 -10.57125 -10.57106 -10.57072
 Alpha  occ. eigenvalues --  -10.56966 -10.56840 -10.54908  -1.24914  -1.24414
 Alpha  occ. eigenvalues --   -1.24331  -1.23859  -1.15249  -1.14947  -1.14511
 Alpha  occ. eigenvalues --   -1.14237  -0.98664  -0.98392  -0.90940  -0.89773
 Alpha  occ. eigenvalues --   -0.87951  -0.86562  -0.86245  -0.85790  -0.80304
 Alpha  occ. eigenvalues --   -0.77020  -0.75470  -0.72223  -0.71208  -0.70190
 Alpha  occ. eigenvalues --   -0.69251  -0.66797  -0.65779  -0.65159  -0.63714
 Alpha  occ. eigenvalues --   -0.62963  -0.60837  -0.59671  -0.58363  -0.58152
 Alpha  occ. eigenvalues --   -0.58017  -0.57598  -0.56340  -0.55765  -0.54278
 Alpha  occ. eigenvalues --   -0.54176  -0.53384  -0.53002  -0.52982  -0.52292
 Alpha  occ. eigenvalues --   -0.51853  -0.50874  -0.50560  -0.50442  -0.49901
 Alpha  occ. eigenvalues --   -0.48610  -0.48235  -0.47169  -0.46477  -0.45922
 Alpha  occ. eigenvalues --   -0.44959  -0.44715  -0.44400  -0.44164  -0.42739
 Alpha  occ. eigenvalues --   -0.42677  -0.42050  -0.41531  -0.41144  -0.40156
 Alpha  occ. eigenvalues --   -0.39938  -0.37351  -0.36851  -0.36572  -0.36137
 Alpha  occ. eigenvalues --   -0.35823  -0.35497  -0.32645  -0.32443  -0.32337
 Alpha  occ. eigenvalues --   -0.32115
 Alpha virt. eigenvalues --   -0.04177  -0.03832   0.01639   0.01895   0.05345
 Alpha virt. eigenvalues --    0.05638   0.11742   0.12441   0.12998   0.13072
 Alpha virt. eigenvalues --    0.13825   0.14881   0.15795   0.16828   0.17534

 Mulliken charges:
               1
     1  C    0.642480
     2  C   -0.125083
     3  H    0.163519
     4  C   -0.122903
     5  H    0.158976
     6  C   -0.033233
     7  C   -0.124943
     8  H    0.161267
     9  C   -0.122947
    10  H    0.154991
    11  C   -0.031797
    12  O   -0.493999
    13  C    0.650290
    14  O   -0.518032
    15  O   -0.518805
    16  O   -0.493648
    17  C    0.022186
    18  H    0.141991
    19  H    0.141962
    20  C   -0.388157
    21  H    0.140929
    22  H    0.141032
    23  H    0.134270
    24  C    0.603189
    25  C   -0.122042
    26  H    0.164614
    27  C   -0.127039
    28  H    0.165759
    29  C   -0.016267
    30  C   -0.126283
    31  H    0.159747
    32  C   -0.121245
    33  H    0.159417
    34  C   -0.034698
    35  O   -0.490956
    36  C    0.643885
    37  O   -0.519530
    38  O   -0.535589
    39  O   -0.478416
    40  C   -0.005002
    41  H    0.167029
    42  H    0.158578
    43  C   -0.004388
    44  H    0.167457
    45  H    0.157749
    46  H    0.353682
 Sum of Mulliken charges =  -0.00000

 Dipole moment (field-independent basis, Debye):
    X=              1.3359    Y=             -2.9899    Z=              0.2464  Tot=              3.2840
 Quadrupole moment (field-independent basis, Debye-Ang):
   XX=           -134.5285   YY=           -161.9072   ZZ=           -158.4276
   XY=              3.3131   XZ=              2.0046   YZ=             -1.5471

 Normal termination of Gaussian 16 at Tue Jul 27 20:22:13 2021.
