 Gaussian 16, Revision A.03,
 Gaussian 16:  EM64L-G16RevA.03 25-Dec-2016

 -----------------------------
 #p opt=loose m062x/6-31g(d,p)
 -----------------------------

 --------------------------------------------------
 Conformer number 1404. Energy MM = 72.083 kcal/mol
 --------------------------------------------------
 Symbolic Z-matrix:
 Charge =  0 Multiplicity = 1

 SCF Done:  E(RM062X) =  -1374.30201899     A.U. after   14 cycles
 SCF Done:  E(RM062X) =  -1374.30876124     A.U. after   12 cycles
 SCF Done:  E(RM062X) =  -1374.30944338     A.U. after   12 cycles
 SCF Done:  E(RM062X) =  -1374.30944991     A.U. after   12 cycles
 SCF Done:  E(RM062X) =  -1374.30954956     A.U. after   12 cycles
 SCF Done:  E(RM062X) =  -1374.30959525     A.U. after   10 cycles
 SCF Done:  E(RM062X) =  -1374.30959554     A.U. after    8 cycles
 Optimization completed.
    -- Stationary point found.

                         Standard orientation:
 ---------------------------------------------------------------------
 Center     Atomic      Atomic             Coordinates (Angstroms)
 Number     Number       Type             X           Y           Z
 ---------------------------------------------------------------------
      1          6           0        1.643464   -0.586027   -0.425981
      2          6           0        4.877878    1.374641   -0.205934
      3          1           0        5.251775    2.392654   -0.211506
      4          6           0        3.522024    1.099850   -0.319992
      5          1           0        2.799339    1.901267   -0.418224
      6          6           0        3.086385   -0.227162   -0.307789
      7          6           0        4.001164   -1.274047   -0.182100
      8          1           0        3.628397   -2.292493   -0.176371
      9          6           0        5.356827   -0.998402   -0.069284
     10          1           0        6.080619   -1.798942    0.028095
     11          6           0        5.792712    0.328201   -0.081239
     12          8           0        7.656844    1.820038    0.030881
     13          6           0        7.238986    0.686534    0.036382
     14          8           0        8.027311   -0.391929    0.148173
     15          8           0        0.854051    0.498099   -0.546944
     16          8           0        1.221206   -1.718042   -0.416944
     17          6           0        9.431406   -0.114876    0.263248
     18          1           0        9.593075    0.518876    1.140015
     19          1           0        9.750043    0.451886   -0.616383
     20          6           0       10.142490   -1.444734    0.377421
     21          1           0        9.798225   -1.990746    1.258395
     22          1           0       11.219220   -1.284537    0.467199
     23          1           0        9.955383   -2.058156   -0.506593
     24          6           0       -8.936830   -0.559704   -0.100374
     25          6           0       -5.222145   -0.950197    0.269225
     26          1           0       -4.493872   -1.745798    0.372699
     27          6           0       -6.575497   -1.235129    0.152522
     28          1           0       -6.942248   -2.255727    0.161231
     29          6           0       -7.496200   -0.194656    0.020644
     30          6           0       -7.070669    1.135240    0.004358
     31          1           0       -7.799062    1.931070   -0.098631
     32          6           0       -5.717128    1.420489    0.120182
     33          1           0       -5.350996    2.441262    0.111347
     34          6           0       -4.796252    0.379995    0.252689
     35          8           0       -2.941525    1.883813    0.361380
     36          6           0       -3.355149    0.748839    0.373112
     37          8           0       -2.560234   -0.329722    0.498512
     38          8           0       -9.740513    0.512707   -0.221902
     39          8           0       -9.358131   -1.690453   -0.090582
     40          6           0       -1.164213   -0.062695    0.654839
     41          1           0       -1.019589    0.783173    1.330686
     42          1           0       -0.734635   -0.971703    1.075330
     43          6           0       -0.542874    0.238309   -0.702742
     44          1           0       -0.692422   -0.606071   -1.379416
     45          1           0       -0.968953    1.149749   -1.121642
     46          1           0      -10.644638    0.171339   -0.291954
 ---------------------------------------------------------------------

 The electronic state is 1-A.
 Alpha  occ. eigenvalues --  -19.69992 -19.69881 -19.69573 -19.69013 -19.64376
 Alpha  occ. eigenvalues --  -19.64240 -19.64064 -19.63489 -10.69581 -10.69555
 Alpha  occ. eigenvalues --  -10.69439 -10.68681 -10.61399 -10.61350 -10.60933
 Alpha  occ. eigenvalues --  -10.58279 -10.58229 -10.58000 -10.57871 -10.57391
 Alpha  occ. eigenvalues --  -10.57360 -10.57204 -10.57171 -10.57110 -10.57055
 Alpha  occ. eigenvalues --  -10.56948 -10.56826 -10.54894  -1.24904  -1.24400
 Alpha  occ. eigenvalues --   -1.24330  -1.23847  -1.15240  -1.14931  -1.14510
 Alpha  occ. eigenvalues --   -1.14224  -0.98662  -0.98376  -0.90931  -0.89768
 Alpha  occ. eigenvalues --   -0.87931  -0.86505  -0.86268  -0.85798  -0.80327
 Alpha  occ. eigenvalues --   -0.76967  -0.75350  -0.72164  -0.71598  -0.70308
 Alpha  occ. eigenvalues --   -0.68975  -0.66727  -0.65638  -0.65143  -0.63657
 Alpha  occ. eigenvalues --   -0.62860  -0.60832  -0.60104  -0.58641  -0.58005
 Alpha  occ. eigenvalues --   -0.57820  -0.57466  -0.56227  -0.55723  -0.54262
 Alpha  occ. eigenvalues --   -0.54151  -0.53643  -0.53214  -0.52952  -0.52028
 Alpha  occ. eigenvalues --   -0.51679  -0.50750  -0.50547  -0.50432  -0.50103
 Alpha  occ. eigenvalues --   -0.48587  -0.48216  -0.47068  -0.46390  -0.45870
 Alpha  occ. eigenvalues --   -0.44963  -0.44786  -0.44497  -0.44168  -0.42728
 Alpha  occ. eigenvalues --   -0.42663  -0.42040  -0.41515  -0.41127  -0.40151
 Alpha  occ. eigenvalues --   -0.39923  -0.37338  -0.36829  -0.36500  -0.36140
 Alpha  occ. eigenvalues --   -0.35856  -0.35485  -0.32701  -0.32383  -0.32325
 Alpha  occ. eigenvalues --   -0.32099
 Alpha virt. eigenvalues --   -0.04177  -0.03815   0.01641   0.01911   0.05346
 Alpha virt. eigenvalues --    0.05654   0.11691   0.12531   0.13001   0.13090
 Alpha virt. eigenvalues --    0.13849   0.14895   0.15771   0.16849   0.17560

 Mulliken charges:
               1
     1  C    0.642448
     2  C   -0.125083
     3  H    0.163366
     4  C   -0.122911
     5  H    0.158797
     6  C   -0.033243
     7  C   -0.124924
     8  H    0.161486
     9  C   -0.122963
    10  H    0.155060
    11  C   -0.031801
    12  O   -0.494102
    13  C    0.650278
    14  O   -0.517980
    15  O   -0.518926
    16  O   -0.493267
    17  C    0.022197
    18  H    0.141913
    19  H    0.141953
    20  C   -0.388159
    21  H    0.140974
    22  H    0.134234
    23  H    0.141075
    24  C    0.602945
    25  C   -0.120613
    26  H    0.160515
    27  C   -0.127641
    28  H    0.165130
    29  C   -0.016218
    30  C   -0.125643
    31  H    0.160397
    32  C   -0.122673
    33  H    0.163503
    34  C   -0.034610
    35  O   -0.491891
    36  C    0.643751
    37  O   -0.518780
    38  O   -0.534931
    39  O   -0.478983
    40  C   -0.004985
    41  H    0.158366
    42  H    0.167469
    43  C   -0.004413
    44  H    0.158113
    45  H    0.167045
    46  H    0.353723
 Sum of Mulliken charges =  -0.00000

 Dipole moment (field-independent basis, Debye):
    X=              0.7899    Y=             -0.3622    Z=              0.0720  Tot=              0.8719
 Quadrupole moment (field-independent basis, Debye-Ang):
   XX=           -122.0950   YY=           -167.0907   ZZ=           -158.3294
   XY=            -25.6602   XZ=              4.0852   YZ=             -2.1936

 Normal termination of Gaussian 16 at Tue Jul 27 20:22:58 2021.
