 Gaussian 16, Revision A.03,
 Gaussian 16:  EM64L-G16RevA.03 25-Dec-2016

 -----------------------------
 #p opt=loose m062x/6-31g(d,p)
 -----------------------------

 -------------------------------------------------
 Conformer number 214. Energy MM = 73.475 kcal/mol
 -------------------------------------------------
 Symbolic Z-matrix:
 Charge =  0 Multiplicity = 1

 SCF Done:  E(RM062X) =  -1374.30001639     A.U. after   15 cycles
 SCF Done:  E(RM062X) =  -1374.30716237     A.U. after   11 cycles
 SCF Done:  E(RM062X) =  -1374.30767211     A.U. after   10 cycles
 SCF Done:  E(RM062X) =  -1374.30772549     A.U. after    9 cycles
 SCF Done:  E(RM062X) =  -1374.30772328     A.U. after    9 cycles
 SCF Done:  E(RM062X) =  -1374.30772301     A.U. after    9 cycles
 Optimization completed.
    -- Stationary point found.

                         Standard orientation:
 ---------------------------------------------------------------------
 Center     Atomic      Atomic             Coordinates (Angstroms)
 Number     Number       Type             X           Y           Z
 ---------------------------------------------------------------------
      1          6           0        1.822944   -1.116325    0.001908
      2          6           0        4.820622    1.201187    0.001659
      3          1           0        5.076686    2.255110    0.001833
      4          6           0        3.500015    0.774188    0.001852
      5          1           0        2.685137    1.488498    0.002178
      6          6           0        3.220398   -0.594335    0.001653
      7          6           0        4.254989   -1.531499    0.001229
      8          1           0        3.999865   -2.585684    0.001081
      9          6           0        5.575332   -1.103825    0.001029
     10          1           0        6.391726   -1.816408    0.000718
     11          6           0        5.855102    0.264409    0.001262
     12          8           0        7.539187    1.960658    0.000378
     13          6           0        7.256392    0.785765    0.001137
     14          8           0        8.169904   -0.194686   -0.000431
     15          8           0        0.903606   -0.132607    0.001200
     16          8           0        1.530349   -2.287402    0.000836
     17          6           0        9.537677    0.243843   -0.001842
     18          1           0        9.706046    0.867917    0.880689
     19          1           0        9.703958    0.868810   -0.884138
     20          6           0       10.405003   -0.994919   -0.003500
     21          1           0       10.208186   -1.601402   -0.890232
     22          1           0       11.459802   -0.711170   -0.004601
     23          1           0       10.210279   -1.602304    0.883079
     24          6           0       -9.037368   -0.571322    0.000670
     25          6           0       -6.003721    1.634788   -0.000364
     26          1           0       -5.748077    2.688773   -0.000177
     27          6           0       -7.321959    1.205253    0.000230
     28          1           0       -8.149780    1.906083    0.000923
     29          6           0       -7.603196   -0.162397   -0.000046
     30          6           0       -6.571543   -1.102496   -0.000939
     31          1           0       -6.810169   -2.159702   -0.001144
     32          6           0       -5.250500   -0.672214   -0.001529
     33          1           0       -4.435673   -1.386507   -0.002219
     34          6           0       -4.970161    0.695484   -0.001263
     35          8           0       -3.279080    2.386612   -0.000502
     36          6           0       -3.571234    1.215759   -0.001958
     37          8           0       -2.653314    0.231418   -0.001310
     38          8           0       -9.201383   -1.907009   -0.000341
     39          8           0       -9.966997    0.198019    0.000895
     40          6           0       -1.296905    0.676633   -0.000371
     41          1           0       -1.103162    1.288650   -0.885744
     42          1           0       -1.104397    1.288740    0.885211
     43          6           0       -0.451963   -0.578452    0.000288
     44          1           0       -0.644668   -1.190628   -0.885274
     45          1           0       -0.645875   -1.190531    0.885653
     46          1           0      -10.157614   -2.065421   -0.000277
 ---------------------------------------------------------------------

 The electronic state is 1-A.
 Alpha  occ. eigenvalues --  -19.70187 -19.70090 -19.69609 -19.69064 -19.64342
 Alpha  occ. eigenvalues --  -19.64232 -19.64091 -19.63519 -10.69583 -10.69525
 Alpha  occ. eigenvalues --  -10.69410 -10.68725 -10.61990 -10.61948 -10.60974
 Alpha  occ. eigenvalues --  -10.58347 -10.58263 -10.58084 -10.57923 -10.57538
 Alpha  occ. eigenvalues --  -10.57457 -10.57215 -10.57214 -10.57136 -10.57114
 Alpha  occ. eigenvalues --  -10.56999 -10.56900 -10.54927  -1.25106  -1.24656
 Alpha  occ. eigenvalues --   -1.24357  -1.23889  -1.15389  -1.14945  -1.14536
 Alpha  occ. eigenvalues --   -1.14246  -0.98715  -0.98444  -0.91403  -0.89837
 Alpha  occ. eigenvalues --   -0.88279  -0.86719  -0.86345  -0.85939  -0.79886
 Alpha  occ. eigenvalues --   -0.77078  -0.74868  -0.72174  -0.71138  -0.70163
 Alpha  occ. eigenvalues --   -0.69445  -0.68025  -0.66118  -0.64819  -0.63006
 Alpha  occ. eigenvalues --   -0.62878  -0.60733  -0.60446  -0.59472  -0.58289
 Alpha  occ. eigenvalues --   -0.58041  -0.56897  -0.56466  -0.56423  -0.55758
 Alpha  occ. eigenvalues --   -0.54263  -0.53280  -0.53194  -0.52486  -0.52090
 Alpha  occ. eigenvalues --   -0.51416  -0.50856  -0.50597  -0.50481  -0.50392
 Alpha  occ. eigenvalues --   -0.49384  -0.47788  -0.46789  -0.46586  -0.46028
 Alpha  occ. eigenvalues --   -0.44823  -0.44465  -0.44252  -0.43994  -0.43463
 Alpha  occ. eigenvalues --   -0.42619  -0.42613  -0.41727  -0.41262  -0.40023
 Alpha  occ. eigenvalues --   -0.38518  -0.38318  -0.37380  -0.36666  -0.36209
 Alpha  occ. eigenvalues --   -0.35978  -0.35522  -0.32662  -0.32498  -0.32390
 Alpha  occ. eigenvalues --   -0.32154
 Alpha virt. eigenvalues --   -0.04163  -0.03823   0.01585   0.01840   0.05389
 Alpha virt. eigenvalues --    0.05674   0.11693   0.12544   0.12960   0.13050
 Alpha virt. eigenvalues --    0.13586   0.14033   0.15422   0.15960   0.17604

 Mulliken charges:
               1
     1  C    0.650841
     2  C   -0.124990
     3  H    0.163689
     4  C   -0.122126
     5  H    0.153838
     6  C   -0.033109
     7  C   -0.124128
     8  H    0.162036
     9  C   -0.122891
    10  H    0.155303
    11  C   -0.031963
    12  O   -0.494541
    13  C    0.650310
    14  O   -0.517830
    15  O   -0.529980
    16  O   -0.489687
    17  C    0.022059
    18  H    0.142139
    19  H    0.142171
    20  C   -0.388232
    21  H    0.141089
    22  H    0.134379
    23  H    0.141080
    24  C    0.603285
    25  C   -0.121239
    26  H    0.165427
    27  C   -0.126793
    28  H    0.166163
    29  C   -0.016624
    30  C   -0.126178
    31  H    0.159860
    32  C   -0.120655
    33  H    0.154273
    34  C   -0.034366
    35  O   -0.487079
    36  C    0.652130
    37  O   -0.530662
    38  O   -0.535744
    39  O   -0.478355
    40  C    0.012371
    41  H    0.154934
    42  H    0.154964
    43  C    0.013332
    44  H    0.153845
    45  H    0.153827
    46  H    0.353824
 Sum of Mulliken charges =  -0.00000

 Dipole moment (field-independent basis, Debye):
    X=              1.6736    Y=             -2.8262    Z=             -0.0014  Tot=              3.2845
 Quadrupole moment (field-independent basis, Debye-Ang):
   XX=           -134.5558   YY=           -165.4953   ZZ=           -158.7722
   XY=              6.9709   XZ=             -0.0001   YZ=              0.0005

 Normal termination of Gaussian 16 at Tue Jul 27 20:12:18 2021.
