 Gaussian 16, Revision A.03,
 Gaussian 16:  EM64L-G16RevA.03 25-Dec-2016

 -----------------------------
 #p opt=loose m062x/6-31g(d,p)
 -----------------------------

 --------------------------------------------------
 Conformer number 1602. Energy MM = 73.121 kcal/mol
 --------------------------------------------------
 Symbolic Z-matrix:
 Charge =  0 Multiplicity = 1

 SCF Done:  E(RM062X) =  -1374.30274324     A.U. after   15 cycles
 SCF Done:  E(RM062X) =  -1374.30891801     A.U. after   13 cycles
 SCF Done:  E(RM062X) =  -1374.30963476     A.U. after   13 cycles
 SCF Done:  E(RM062X) =  -1374.30959202     A.U. after   12 cycles
 SCF Done:  E(RM062X) =  -1374.30974797     A.U. after   12 cycles
 SCF Done:  E(RM062X) =  -1374.30978595     A.U. after   11 cycles
 SCF Done:  E(RM062X) =  -1374.30979111     A.U. after   11 cycles
 SCF Done:  E(RM062X) =  -1374.30979447     A.U. after   11 cycles
 SCF Done:  E(RM062X) =  -1374.30979566     A.U. after    9 cycles
 SCF Done:  E(RM062X) =  -1374.30979592     A.U. after    9 cycles
 SCF Done:  E(RM062X) =  -1374.30979617     A.U. after    8 cycles
 Optimization completed.
    -- Stationary point found.

                         Standard orientation:
 ---------------------------------------------------------------------
 Center     Atomic      Atomic             Coordinates (Angstroms)
 Number     Number       Type             X           Y           Z
 ---------------------------------------------------------------------
      1          6           0        1.352600   -2.889041    0.217121
      2          6           0        4.391047   -1.000491   -0.913014
      3          1           0        5.201233   -1.093150   -1.627896
      4          6           0        3.408364   -1.972570   -0.798500
      5          1           0        3.413829   -2.861264   -1.420048
      6          6           0        2.382805   -1.813560    0.135656
      7          6           0        2.337025   -0.683820    0.954733
      8          1           0        1.533139   -0.575909    1.673313
      9          6           0        3.321606    0.289584    0.839432
     10          1           0        3.302993    1.173231    1.466210
     11          6           0        4.347240    0.129312   -0.093955
     12          8           0        6.334342    1.040700   -1.055567
     13          6           0        5.431118    1.145255   -0.259373
     14          8           0        5.290744    2.182816    0.578970
     15          8           0        0.420901   -2.638344    1.155510
     16          8           0        1.347955   -3.880031   -0.474358
     17          6           0        6.290668    3.210602    0.476128
     18          1           0        7.270395    2.737662    0.377729
     19          1           0        6.235616    3.740600    1.428264
     20          6           0        6.006367    4.131623   -0.695200
     21          1           0        6.733689    4.947193   -0.711773
     22          1           0        6.081168    3.581586   -1.634733
     23          1           0        5.005747    4.561285   -0.608985
     24          6           0       -5.483833    3.344390    0.071809
     25          6           0       -3.219908    0.353259    0.597714
     26          1           0       -2.351378    0.054742    1.173122
     27          6           0       -3.754701    1.629113    0.726165
     28          1           0       -3.313676    2.348238    1.406566
     29          6           0       -4.871689    1.989055   -0.029807
     30          6           0       -5.454874    1.080495   -0.915262
     31          1           0       -6.321026    1.394200   -1.487560
     32          6           0       -4.919869   -0.192353   -1.045007
     33          1           0       -5.346290   -0.921549   -1.725171
     34          6           0       -3.804628   -0.554584   -0.287114
     35          8           0       -3.702982   -2.740504   -1.253006
     36          6           0       -3.267302   -1.936134   -0.465555
     37          8           0       -2.236333   -2.193611    0.356685
     38          8           0       -4.847422    4.143387    0.948735
     39          8           0       -6.448031    3.707936   -0.556115
     40          6           0       -1.649930   -3.489156    0.209503
     41          1           0       -2.419504   -4.259023    0.321113
     42          1           0       -1.209901   -3.585736   -0.786088
     43          6           0       -0.603249   -3.626892    1.289857
     44          1           0       -0.161803   -4.625344    1.246154
     45          1           0       -1.042284   -3.450045    2.272751
     46          1           0       -5.318490    4.989982    0.938211
 ---------------------------------------------------------------------

 The electronic state is 1-A.
 Alpha  occ. eigenvalues --  -19.69911 -19.69677 -19.69546 -19.69076 -19.64289
 Alpha  occ. eigenvalues --  -19.64018 -19.63970 -19.63623 -10.69506 -10.69493
 Alpha  occ. eigenvalues --  -10.69163 -10.68887 -10.62134 -10.61674 -10.60951
 Alpha  occ. eigenvalues --  -10.58129 -10.58124 -10.58076 -10.57949 -10.57381
 Alpha  occ. eigenvalues --  -10.57289 -10.57288 -10.57163 -10.57067 -10.56978
 Alpha  occ. eigenvalues --  -10.56978 -10.56857 -10.54424  -1.25054  -1.24290
 Alpha  occ. eigenvalues --   -1.24168  -1.23859  -1.15296  -1.14581  -1.14463
 Alpha  occ. eigenvalues --   -1.14335  -0.98555  -0.98452  -0.91228  -0.89669
 Alpha  occ. eigenvalues --   -0.88069  -0.86419  -0.86088  -0.85970  -0.79986
 Alpha  occ. eigenvalues --   -0.77322  -0.75683  -0.72462  -0.71056  -0.70582
 Alpha  occ. eigenvalues --   -0.69577  -0.67302  -0.65238  -0.64290  -0.63256
 Alpha  occ. eigenvalues --   -0.62956  -0.60773  -0.59921  -0.58995  -0.58200
 Alpha  occ. eigenvalues --   -0.57416  -0.56983  -0.56212  -0.55428  -0.54863
 Alpha  occ. eigenvalues --   -0.54196  -0.53580  -0.53144  -0.53036  -0.52310
 Alpha  occ. eigenvalues --   -0.52031  -0.50998  -0.50833  -0.50446  -0.49854
 Alpha  occ. eigenvalues --   -0.48481  -0.48025  -0.47388  -0.46356  -0.45978
 Alpha  occ. eigenvalues --   -0.45379  -0.44493  -0.44277  -0.43999  -0.43428
 Alpha  occ. eigenvalues --   -0.42954  -0.41714  -0.41620  -0.40872  -0.39962
 Alpha  occ. eigenvalues --   -0.38681  -0.37875  -0.37314  -0.36269  -0.36138
 Alpha  occ. eigenvalues --   -0.35832  -0.35514  -0.32499  -0.32359  -0.32340
 Alpha  occ. eigenvalues --   -0.32240
 Alpha virt. eigenvalues --   -0.03973  -0.03916   0.01734   0.01827   0.05506
 Alpha virt. eigenvalues --    0.05618   0.11784   0.12789   0.13083   0.13249
 Alpha virt. eigenvalues --    0.14544   0.15359   0.15447   0.16327   0.16514

 Mulliken charges:
               1
     1  C    0.647279
     2  C   -0.124961
     3  H    0.164278
     4  C   -0.123892
     5  H    0.163879
     6  C   -0.032146
     7  C   -0.121643
     8  H    0.152840
     9  C   -0.123700
    10  H    0.154404
    11  C   -0.030007
    12  O   -0.494141
    13  C    0.647659
    14  O   -0.514813
    15  O   -0.511488
    16  O   -0.494376
    17  C    0.006418
    18  H    0.150212
    19  H    0.136272
    20  C   -0.387698
    21  H    0.131460
    22  H    0.158687
    23  H    0.135835
    24  C    0.602451
    25  C   -0.119598
    26  H    0.154371
    27  C   -0.126658
    28  H    0.157237
    29  C   -0.016132
    30  C   -0.127205
    31  H    0.165350
    32  C   -0.121542
    33  H    0.164918
    34  C   -0.034882
    35  O   -0.489444
    36  C    0.652124
    37  O   -0.519295
    38  O   -0.536456
    39  O   -0.478750
    40  C    0.005110
    41  H    0.151099
    42  H    0.172573
    43  C   -0.010366
    44  H    0.159425
    45  H    0.152115
    46  H    0.353198
 Sum of Mulliken charges =  -0.00000

 Dipole moment (field-independent basis, Debye):
    X=              1.0846    Y=              2.3894    Z=              4.0253  Tot=              4.8051
 Quadrupole moment (field-independent basis, Debye-Ang):
   XX=           -176.1553   YY=           -145.6113   ZZ=           -157.9449
   XY=             10.2999   XZ=             -2.6464   YZ=             -0.5550

 Normal termination of Gaussian 16 at Tue Jul 27 20:55:44 2021.
