 Gaussian 16, Revision A.03,
 Gaussian 16:  EM64L-G16RevA.03 25-Dec-2016

 -------------------------------------------
 #p opt blyp/6-31G** EmpiricalDispersion=GD3
 -------------------------------------------

 ------------------------------------------------
 Conformer number 174. Energy MM = 0.000 kcal/mol
 ------------------------------------------------
 Symbolic Z-matrix:
 Charge =  0 Multiplicity = 1

 SCF Done:  E(RB-LYP) =  -698.279528790     A.U. after   16 cycles
 SCF Done:  E(RB-LYP) =  -698.323575149     A.U. after   12 cycles
 SCF Done:  E(RB-LYP) =  -698.349337681     A.U. after   13 cycles
 SCF Done:  E(RB-LYP) =  -698.350882716     A.U. after   11 cycles
 SCF Done:  E(RB-LYP) =  -698.352113508     A.U. after   12 cycles
 SCF Done:  E(RB-LYP) =  -698.352909786     A.U. after   12 cycles
 SCF Done:  E(RB-LYP) =  -698.354190727     A.U. after   12 cycles
 SCF Done:  E(RB-LYP) =  -698.352429418     A.U. after   14 cycles
 SCF Done:  E(RB-LYP) =  -698.355849216     A.U. after   12 cycles
 SCF Done:  E(RB-LYP) =  -698.355668914     A.U. after   12 cycles
 SCF Done:  E(RB-LYP) =  -698.364683465     A.U. after    9 cycles
 SCF Done:  E(RB-LYP) =  -698.364685187     A.U. after    8 cycles
 SCF Done:  E(RB-LYP) =  -698.364687317     A.U. after    7 cycles
 SCF Done:  E(RB-LYP) =  -698.364689198     A.U. after    9 cycles
 SCF Done:  E(RB-LYP) =  -698.364690920     A.U. after    8 cycles
 SCF Done:  E(RB-LYP) =  -698.364692566     A.U. after    8 cycles
 SCF Done:  E(RB-LYP) =  -698.364693397     A.U. after    9 cycles
 SCF Done:  E(RB-LYP) =  -698.364693604     A.U. after    7 cycles
 SCF Done:  E(RB-LYP) =  -698.364693705     A.U. after    7 cycles
 SCF Done:  E(RB-LYP) =  -698.364693761     A.U. after    7 cycles
 Optimization completed.
    -- Stationary point found.

                         Standard orientation:
 ---------------------------------------------------------------------
 Center     Atomic      Atomic             Coordinates (Angstroms)
 Number     Number       Type             X           Y           Z
 ---------------------------------------------------------------------
      1          1           0       -0.273086    1.828831   -1.161671
      2          6           0       -0.805072    2.405570   -0.386439
      3          6           0       -2.293850    2.007869   -0.317048
      4          1           0       -0.303722    2.213480    0.571472
      5          1           0       -0.694760    3.475534   -0.626582
      6          1           0       -2.805207    2.271779   -1.259898
      7          1           0       -2.795650    2.573747    0.487962
      8          6           0       -2.518676    0.506673   -0.061996
      9          6           0       -4.016520    0.127130   -0.017935
     10          1           0       -2.037487   -0.067052   -0.883334
     11          1           0       -4.484618    0.450605   -0.964837
     12          1           0       -4.497790    0.701055    0.793185
     13          8           0       -1.856446    0.200391    1.194389
     14          1           0       -1.970694   -0.753468    1.365958
     15          6           0       -4.264026   -1.383156    0.184932
     16          1           0       -3.766630   -1.978508   -0.599478
     17          1           0       -5.338729   -1.620914    0.158559
     18          1           0       -3.884679   -1.729819    1.161718
     19          1           0        3.886817   -1.625735   -0.453650
     20          6           0        3.302924   -2.362927    0.119175
     21          6           0        2.171609   -1.667509    0.904034
     22          1           0        2.913428   -3.108439   -0.592937
     23          1           0        3.990128   -2.885544    0.802775
     24          1           0        2.592291   -1.027851    1.694418
     25          1           0        1.544468   -2.418338    1.416477
     26          6           0        1.243369   -0.781334    0.044974
     27          6           0        0.547777   -1.487147   -1.132943
     28          1           0        0.488705   -0.306519    0.691517
     29          1           0        1.307320   -1.874385   -1.832260
     30          1           0       -0.022363   -0.724499   -1.688375
     31          8           0        2.031378    0.304250   -0.592306
     32          6           0        2.363429    1.374389    0.196603
     33          8           0        2.109753    1.466530    1.391784
     34          6           0        3.037629    2.454486   -0.638111
     35          1           0        3.608622    3.121122    0.019907
     36          1           0        3.686752    2.019063   -1.410562
     37          1           0        2.254503    3.042270   -1.144387
     38          6           0       -0.393699   -2.625731   -0.689842
     39          1           0       -0.951511   -3.031836   -1.548007
     40          1           0       -1.131805   -2.265872    0.045106
     41          1           0        0.158858   -3.457946   -0.226428
 ---------------------------------------------------------------------

 The electronic state is 1-A.
 Alpha  occ. eigenvalues --  -18.82304 -18.79232 -18.77139 -10.03563  -9.96800
 Alpha  occ. eigenvalues --   -9.96797  -9.92731  -9.92372  -9.92332  -9.92312
 Alpha  occ. eigenvalues --   -9.92258  -9.91665  -9.91599  -9.91088  -9.90223
 Alpha  occ. eigenvalues --   -0.97149  -0.90943  -0.89502  -0.71756  -0.70196
 Alpha  occ. eigenvalues --   -0.66779  -0.66516  -0.65729  -0.60197  -0.59658
 Alpha  occ. eigenvalues --   -0.55316  -0.53108  -0.51326  -0.50281  -0.46365
 Alpha  occ. eigenvalues --   -0.45124  -0.42138  -0.40619  -0.40450  -0.40062
 Alpha  occ. eigenvalues --   -0.38976  -0.37725  -0.37375  -0.36095  -0.35912
 Alpha  occ. eigenvalues --   -0.35473  -0.35183  -0.34685  -0.34136  -0.32475
 Alpha  occ. eigenvalues --   -0.31846  -0.31382  -0.31322  -0.30811  -0.30537
 Alpha  occ. eigenvalues --   -0.30054  -0.29094  -0.28859  -0.28263  -0.27980
 Alpha  occ. eigenvalues --   -0.27520  -0.26524  -0.25929  -0.23374  -0.20868
 Alpha  occ. eigenvalues --   -0.20199
 Alpha virt. eigenvalues --   -0.01051   0.02286   0.05831   0.07070   0.07719
 Alpha virt. eigenvalues --    0.08720   0.09412   0.09840   0.10714   0.11033
 Alpha virt. eigenvalues --    0.11760   0.12426   0.13044   0.13199   0.13930

 Mulliken charges:
               1
     1  H    0.089421
     2  C   -0.313132
     3  C   -0.147015
     4  H    0.140744
     5  H    0.077707
     6  H    0.072393
     7  H    0.087271
     8  C    0.174109
     9  C   -0.146762
    10  H    0.058582
    11  H    0.077430
    12  H    0.088915
    13  O   -0.506052
    14  H    0.295237
    15  C   -0.307394
    16  H    0.097325
    17  H    0.096954
    18  H    0.083704
    19  H    0.101743
    20  C   -0.290533
    21  C   -0.164354
    22  H    0.090489
    23  H    0.088366
    24  H    0.110907
    25  H    0.077691
    26  C    0.158104
    27  C   -0.164480
    28  H    0.116961
    29  H    0.089499
    30  H    0.093967
    31  O   -0.444816
    32  C    0.567974
    33  O   -0.450004
    34  C   -0.352582
    35  H    0.123353
    36  H    0.117613
    37  H    0.134279
    38  C   -0.298371
    39  H    0.094323
    40  H    0.078529
    41  H    0.101906
 Sum of Mulliken charges =  -0.00000

 Dipole moment (field-independent basis, Debye):
    X=             -1.1985    Y=             -1.5702    Z=             -2.1620  Tot=              2.9285
 Quadrupole moment (field-independent basis, Debye-Ang):
   XX=            -90.6225   YY=            -92.2758   ZZ=           -100.4146
   XY=              2.0299   XZ=             -2.1851   YZ=             -5.5607

 Normal termination of Gaussian 16 at Tue Jan 24 06:42:45 2023.
