 Gaussian 16, Revision A.03,
 Gaussian 16:  EM64L-G16RevA.03 25-Dec-2016

 -------------------------------------------
 #p opt blyp/6-31G** EmpiricalDispersion=GD3
 -------------------------------------------

 ------------------------------------------------
 Conformer number 239. Energy MM = 0.000 kcal/mol
 ------------------------------------------------
 Symbolic Z-matrix:
 Charge =  0 Multiplicity = 1

 SCF Done:  E(RB-LYP) =  -698.283355530     A.U. after   16 cycles
 SCF Done:  E(RB-LYP) =  -698.326945815     A.U. after   12 cycles
 SCF Done:  E(RB-LYP) =  -698.346584537     A.U. after   13 cycles
 SCF Done:  E(RB-LYP) =  -698.332779424     A.U. after   15 cycles
 SCF Done:  E(RB-LYP) =  -698.348063276     A.U. after   13 cycles
 SCF Done:  E(RB-LYP) =  -698.342741648     A.U. after   13 cycles
 SCF Done:  E(RB-LYP) =  -698.354812981     A.U. after   12 cycles
 SCF Done:  E(RB-LYP) =  -698.354053421     A.U. after   12 cycles
 SCF Done:  E(RB-LYP) =  -698.355811087     A.U. after   12 cycles
 SCF Done:  E(RB-LYP) =  -698.356031170     A.U. after   12 cycles
 SCF Done:  E(RB-LYP) =  -698.374395072     A.U. after    9 cycles
 SCF Done:  E(RB-LYP) =  -698.374403322     A.U. after    9 cycles
 SCF Done:  E(RB-LYP) =  -698.374408222     A.U. after    9 cycles
 SCF Done:  E(RB-LYP) =  -698.374410240     A.U. after    9 cycles
 SCF Done:  E(RB-LYP) =  -698.374410685     A.U. after    8 cycles
 SCF Done:  E(RB-LYP) =  -698.374410888     A.U. after    7 cycles
 SCF Done:  E(RB-LYP) =  -698.374411046     A.U. after    7 cycles
 SCF Done:  E(RB-LYP) =  -698.374411110     A.U. after    7 cycles
 SCF Done:  E(RB-LYP) =  -698.374411152     A.U. after    6 cycles
 SCF Done:  E(RB-LYP) =  -698.374411177     A.U. after    6 cycles
 Optimization completed.
    -- Stationary point found.

                         Standard orientation:
 ---------------------------------------------------------------------
 Center     Atomic      Atomic             Coordinates (Angstroms)
 Number     Number       Type             X           Y           Z
 ---------------------------------------------------------------------
      1          1           0        1.490962   -2.979209    2.289065
      2          6           0        1.387366   -1.976620    1.844419
      3          6           0        2.563063   -1.662114    0.896927
      4          1           0        0.421678   -1.931953    1.315477
      5          1           0        1.339087   -1.245337    2.665546
      6          1           0        2.635216   -2.443274    0.117392
      7          1           0        3.512092   -1.684926    1.461873
      8          6           0        2.448862   -0.285804    0.197753
      9          6           0        3.654685    0.006173   -0.716040
     10          1           0        1.530775   -0.292801   -0.429793
     11          1           0        3.771796   -0.836490   -1.420522
     12          1           0        4.564024    0.026781   -0.089102
     13          8           0        2.370644    0.792606    1.158358
     14          1           0        1.456589    0.779764    1.520724
     15          6           0        3.524146    1.332604   -1.490579
     16          1           0        2.615993    1.337558   -2.118296
     17          1           0        4.389562    1.500743   -2.151534
     18          1           0        3.454207    2.177697   -0.790251
     19          1           0       -0.292786   -2.310155   -0.982280
     20          6           0       -0.778875   -1.816222   -1.839222
     21          6           0       -2.246240   -1.460751   -1.523004
     22          1           0       -0.200692   -0.909576   -2.074027
     23          1           0       -0.712432   -2.494546   -2.703984
     24          1           0       -2.822258   -2.379001   -1.311676
     25          1           0       -2.720203   -0.984402   -2.399229
     26          6           0       -2.400943   -0.528690   -0.309882
     27          6           0       -3.857982   -0.178875    0.037080
     28          1           0       -1.895183   -0.954281    0.570937
     29          1           0       -4.383522   -1.127572    0.246510
     30          1           0       -4.340865    0.260480   -0.853691
     31          8           0       -1.699345    0.734064   -0.657745
     32          6           0       -0.765254    1.211948    0.208789
     33          8           0       -0.490536    0.688220    1.292284
     34          6           0       -0.102877    2.472994   -0.314519
     35          1           0        0.975597    2.394875   -0.117266
     36          1           0       -0.300438    2.627720   -1.382430
     37          1           0       -0.488234    3.334924    0.253683
     38          6           0       -3.989889    0.776068    1.241289
     39          1           0       -5.047409    0.948042    1.494769
     40          1           0       -3.533943    1.752603    1.017083
     41          1           0       -3.482087    0.368964    2.129788
 ---------------------------------------------------------------------

 The electronic state is 1-A.
 Alpha  occ. eigenvalues --  -18.84245 -18.79241 -18.76698 -10.05518  -9.98363
 Alpha  occ. eigenvalues --   -9.95386  -9.93306  -9.93257  -9.93256  -9.92033
 Alpha  occ. eigenvalues --   -9.91905  -9.90797  -9.90682  -9.90275  -9.90190
 Alpha  occ. eigenvalues --   -0.99184  -0.91467  -0.88628  -0.72867  -0.68828
 Alpha  occ. eigenvalues --   -0.67733  -0.66653  -0.65567  -0.61026  -0.58419
 Alpha  occ. eigenvalues --   -0.54139  -0.54005  -0.51820  -0.49342  -0.48688
 Alpha  occ. eigenvalues --   -0.44226  -0.43230  -0.42082  -0.40483  -0.38752
 Alpha  occ. eigenvalues --   -0.38615  -0.38307  -0.38145  -0.36415  -0.36135
 Alpha  occ. eigenvalues --   -0.35464  -0.34759  -0.34481  -0.34293  -0.33076
 Alpha  occ. eigenvalues --   -0.32723  -0.31606  -0.31334  -0.30032  -0.29682
 Alpha  occ. eigenvalues --   -0.29656  -0.29425  -0.28608  -0.28227  -0.27908
 Alpha  occ. eigenvalues --   -0.27556  -0.27240  -0.25049  -0.24569  -0.22365
 Alpha  occ. eigenvalues --   -0.19028
 Alpha virt. eigenvalues --   -0.02912   0.04373   0.06671   0.06909   0.07967
 Alpha virt. eigenvalues --    0.08717   0.09250   0.10155   0.10601   0.11502
 Alpha virt. eigenvalues --    0.11755   0.12420   0.12927   0.13255   0.13766

 Mulliken charges:
               1
     1  H    0.079358
     2  C   -0.306032
     3  C   -0.138118
     4  H    0.099062
     5  H    0.101071
     6  H    0.064413
     7  H    0.080533
     8  C    0.171584
     9  C   -0.137258
    10  H    0.047003
    11  H    0.069191
    12  H    0.084684
    13  O   -0.540252
    14  H    0.313545
    15  C   -0.290323
    16  H    0.077776
    17  H    0.079792
    18  H    0.113207
    19  H    0.107411
    20  C   -0.305306
    21  C   -0.149527
    22  H    0.109837
    23  H    0.090968
    24  H    0.086435
    25  H    0.089918
    26  C    0.142198
    27  C   -0.147047
    28  H    0.113337
    29  H    0.086416
    30  H    0.088292
    31  O   -0.427511
    32  C    0.579274
    33  O   -0.469824
    34  C   -0.373080
    35  H    0.156672
    36  H    0.116854
    37  H    0.131818
    38  C   -0.293399
    39  H    0.090062
    40  H    0.099083
    41  H    0.107886
 Sum of Mulliken charges =  -0.00000

 Dipole moment (field-independent basis, Debye):
    X=             -2.7102    Y=             -0.5935    Z=             -1.7612  Tot=              3.2862
 Quadrupole moment (field-independent basis, Debye-Ang):
   XX=            -95.7758   YY=            -92.4724   ZZ=            -99.1758
   XY=             -0.9973   XZ=             -2.4211   YZ=             -0.3275

 Normal termination of Gaussian 16 at Tue Jan 24 09:13:44 2023.
