 Gaussian 16, Revision A.03,
 Gaussian 16:  EM64L-G16RevA.03 25-Dec-2016

 -------------------------------------------
 #p opt blyp/6-31G** EmpiricalDispersion=GD3
 -------------------------------------------

 ------------------------------------------------
 Conformer number 028. Energy MM = 0.000 kcal/mol
 ------------------------------------------------
 Symbolic Z-matrix:
 Charge =  0 Multiplicity = 1

 SCF Done:  E(RB-LYP) =  -698.259597995     A.U. after   14 cycles
 SCF Done:  E(RB-LYP) =  -698.316839911     A.U. after   12 cycles
 SCF Done:  E(RB-LYP) =  -698.347816366     A.U. after   13 cycles
 SCF Done:  E(RB-LYP) =  -698.356415436     A.U. after   15 cycles
 SCF Done:  E(RB-LYP) =  -698.356165838     A.U. after   15 cycles
 SCF Done:  E(RB-LYP) =  -698.362651559     A.U. after   12 cycles
 SCF Done:  E(RB-LYP) =  -698.364653454     A.U. after   12 cycles
 SCF Done:  E(RB-LYP) =  -698.365249236     A.U. after   14 cycles
 SCF Done:  E(RB-LYP) =  -698.366946754     A.U. after   14 cycles
 SCF Done:  E(RB-LYP) =  -698.368670137     A.U. after   15 cycles
 SCF Done:  E(RB-LYP) =  -698.374345690     A.U. after   12 cycles
 SCF Done:  E(RB-LYP) =  -698.374402029     A.U. after   11 cycles
 SCF Done:  E(RB-LYP) =  -698.374401025     A.U. after   11 cycles
 SCF Done:  E(RB-LYP) =  -698.374408108     A.U. after   10 cycles
 SCF Done:  E(RB-LYP) =  -698.374408635     A.U. after    8 cycles
 SCF Done:  E(RB-LYP) =  -698.374406207     A.U. after    9 cycles
 SCF Done:  E(RB-LYP) =  -698.374410642     A.U. after   10 cycles
 SCF Done:  E(RB-LYP) =  -698.374410701     A.U. after    8 cycles
 SCF Done:  E(RB-LYP) =  -698.374411076     A.U. after    8 cycles
 SCF Done:  E(RB-LYP) =  -698.374411172     A.U. after    7 cycles
 Optimization completed.
    -- Stationary point found.

                         Standard orientation:
 ---------------------------------------------------------------------
 Center     Atomic      Atomic             Coordinates (Angstroms)
 Number     Number       Type             X           Y           Z
 ---------------------------------------------------------------------
      1          1           0       -3.454459   -2.177801    0.790395
      2          6           0       -3.524182   -1.332708    1.490744
      3          6           0       -3.654631   -0.006235    0.716254
      4          1           0       -4.389555   -1.500720    2.151788
      5          1           0       -2.615959   -1.337828    2.118356
      6          1           0       -3.771576    0.836416    1.420777
      7          1           0       -4.564040   -0.026728    0.089414
      8          6           0       -2.448886    0.285701   -0.197632
      9          6           0       -2.563097    1.662022   -0.896754
     10          1           0       -1.530725    0.292572    0.429787
     11          1           0       -2.634861    2.443164   -0.117160
     12          1           0       -3.512332    1.685022   -1.461345
     13          8           0       -2.370871   -0.792741   -1.158307
     14          1           0       -1.456947   -0.779815   -1.520976
     15          6           0       -1.387700    1.976481   -1.844622
     16          1           0       -1.339719    1.245277   -2.665837
     17          1           0       -0.421842    1.931770   -1.316002
     18          1           0       -1.491391    2.979110   -2.289169
     19          1           0        3.533971   -1.752988   -1.016674
     20          6           0        3.990107   -0.776557   -1.240951
     21          6           0        3.858160    0.178577   -0.036874
     22          1           0        5.047637   -0.948711   -1.494258
     23          1           0        3.482477   -0.369489   -2.129567
     24          1           0        4.383896    1.127150   -0.246367
     25          1           0        4.340861   -0.260752    0.854009
     26          6           0        2.401147    0.528633    0.309802
     27          6           0        2.246375    1.460939    1.522751
     28          1           0        1.895585    0.954162   -0.571165
     29          1           0        2.822709    2.378996    1.311448
     30          1           0        2.719953    0.984570    2.399173
     31          8           0        1.699293   -0.733950    0.657763
     32          6           0        0.765192   -1.211812   -0.208853
     33          8           0        0.490689   -0.688175   -1.292422
     34          6           0        0.102614   -2.472685    0.314654
     35          1           0        0.299809   -2.626981    1.382698
     36          1           0       -0.975798   -2.394684    0.117042
     37          1           0        0.488224   -3.334830   -0.253040
     38          6           0        0.779028    1.816879    1.838552
     39          1           0        0.712617    2.495459    2.703125
     40          1           0        0.200553    0.910451    2.073467
     41          1           0        0.293263    2.310723    0.981378
 ---------------------------------------------------------------------

 The electronic state is 1-A.
 Alpha  occ. eigenvalues --  -18.84243 -18.79241 -18.76700 -10.05517  -9.98362
 Alpha  occ. eigenvalues --   -9.95387  -9.93306  -9.93256  -9.93256  -9.92032
 Alpha  occ. eigenvalues --   -9.91905  -9.90798  -9.90683  -9.90275  -9.90191
 Alpha  occ. eigenvalues --   -0.99182  -0.91466  -0.88628  -0.72866  -0.68829
 Alpha  occ. eigenvalues --   -0.67732  -0.66652  -0.65568  -0.61025  -0.58420
 Alpha  occ. eigenvalues --   -0.54138  -0.54005  -0.51821  -0.49341  -0.48689
 Alpha  occ. eigenvalues --   -0.44226  -0.43229  -0.42081  -0.40482  -0.38752
 Alpha  occ. eigenvalues --   -0.38615  -0.38307  -0.38145  -0.36416  -0.36134
 Alpha  occ. eigenvalues --   -0.35463  -0.34758  -0.34481  -0.34293  -0.33077
 Alpha  occ. eigenvalues --   -0.32723  -0.31606  -0.31333  -0.30031  -0.29682
 Alpha  occ. eigenvalues --   -0.29655  -0.29425  -0.28609  -0.28226  -0.27909
 Alpha  occ. eigenvalues --   -0.27557  -0.27241  -0.25049  -0.24569  -0.22365
 Alpha  occ. eigenvalues --   -0.19030
 Alpha virt. eigenvalues --   -0.02912   0.04372   0.06672   0.06909   0.07967
 Alpha virt. eigenvalues --    0.08717   0.09250   0.10154   0.10600   0.11501
 Alpha virt. eigenvalues --    0.11755   0.12420   0.12926   0.13255   0.13766

 Mulliken charges:
               1
     1  H    0.113209
     2  C   -0.290323
     3  C   -0.137261
     4  H    0.079796
     5  H    0.077782
     6  H    0.069198
     7  H    0.084690
     8  C    0.171580
     9  C   -0.138121
    10  H    0.047022
    11  H    0.064425
    12  H    0.080534
    13  O   -0.540238
    14  H    0.313523
    15  C   -0.306036
    16  H    0.101062
    17  H    0.099080
    18  H    0.079364
    19  H    0.099084
    20  C   -0.293401
    21  C   -0.147044
    22  H    0.090060
    23  H    0.107881
    24  H    0.086412
    25  H    0.088289
    26  C    0.142217
    27  C   -0.149525
    28  H    0.113319
    29  H    0.086428
    30  H    0.089918
    31  O   -0.427537
    32  C    0.579264
    33  O   -0.469800
    34  C   -0.373086
    35  H    0.116860
    36  H    0.156668
    37  H    0.131809
    38  C   -0.305305
    39  H    0.090966
    40  H    0.109837
    41  H    0.107403
 Sum of Mulliken charges =  -0.00000

 Dipole moment (field-independent basis, Debye):
    X=              2.7089    Y=              0.5940    Z=              1.7608  Tot=              3.2851
 Quadrupole moment (field-independent basis, Debye-Ang):
   XX=            -95.7748   YY=            -92.4733   ZZ=            -99.1754
   XY=             -0.9977   XZ=             -2.4204   YZ=             -0.3282

 Normal termination of Gaussian 16 at Tue Jan 24 01:42:02 2023.
