 Gaussian 16, Revision A.03,
 Gaussian 16:  EM64L-G16RevA.03 25-Dec-2016

 -------------------------------------------
 #p opt blyp/6-31G** EmpiricalDispersion=GD3
 -------------------------------------------

 ------------------------------------------------
 Conformer number 140. Energy MM = 0.000 kcal/mol
 ------------------------------------------------
 Symbolic Z-matrix:
 Charge =  0 Multiplicity = 1

 SCF Done:  E(RB-LYP) =  -698.281713498     A.U. after   16 cycles
 SCF Done:  E(RB-LYP) =  -698.325560210     A.U. after   13 cycles
 SCF Done:  E(RB-LYP) =  -698.350112977     A.U. after   13 cycles
 SCF Done:  E(RB-LYP) =  -698.352502285     A.U. after   11 cycles
 SCF Done:  E(RB-LYP) =  -698.353071923     A.U. after   12 cycles
 SCF Done:  E(RB-LYP) =  -698.353986912     A.U. after   12 cycles
 SCF Done:  E(RB-LYP) =  -698.354458189     A.U. after   12 cycles
 SCF Done:  E(RB-LYP) =  -698.355230739     A.U. after   13 cycles
 SCF Done:  E(RB-LYP) =  -698.355359118     A.U. after   12 cycles
 SCF Done:  E(RB-LYP) =  -698.355224547     A.U. after   13 cycles
 SCF Done:  E(RB-LYP) =  -698.359309311     A.U. after    7 cycles
 SCF Done:  E(RB-LYP) =  -698.359309433     A.U. after    7 cycles
 SCF Done:  E(RB-LYP) =  -698.359309496     A.U. after    7 cycles
 SCF Done:  E(RB-LYP) =  -698.359309540     A.U. after    7 cycles
 SCF Done:  E(RB-LYP) =  -698.359309659     A.U. after    7 cycles
 SCF Done:  E(RB-LYP) =  -698.359309786     A.U. after    7 cycles
 SCF Done:  E(RB-LYP) =  -698.359309998     A.U. after    7 cycles
 SCF Done:  E(RB-LYP) =  -698.359310142     A.U. after    7 cycles
 SCF Done:  E(RB-LYP) =  -698.359310289     A.U. after    7 cycles
 SCF Done:  E(RB-LYP) =  -698.359310309     A.U. after    6 cycles
 Optimization completed.
    -- Stationary point found.

                         Standard orientation:
 ---------------------------------------------------------------------
 Center     Atomic      Atomic             Coordinates (Angstroms)
 Number     Number       Type             X           Y           Z
 ---------------------------------------------------------------------
      1          1           0       -3.876085   -2.843984    0.012010
      2          6           0       -2.923945   -2.610054    0.510008
      3          6           0       -2.911343   -1.137062    0.964539
      4          1           0       -2.796137   -3.295418    1.362720
      5          1           0       -2.109629   -2.810969   -0.207279
      6          1           0       -1.946104   -0.892401    1.441966
      7          1           0       -3.693071   -0.967655    1.726155
      8          6           0       -3.155140   -0.146485   -0.188846
      9          6           0       -2.988554    1.327812    0.247977
     10          1           0       -2.426369   -0.358060   -1.000789
     11          1           0       -1.963715    1.466624    0.635067
     12          1           0       -3.678952    1.520407    1.087832
     13          8           0       -4.502215   -0.405092   -0.666135
     14          1           0       -4.583446    0.012630   -1.543941
     15          6           0       -3.255491    2.334268   -0.889755
     16          1           0       -2.583398    2.156948   -1.747082
     17          1           0       -3.102792    3.371994   -0.554966
     18          1           0       -4.294896    2.254911   -1.248501
     19          1           0       -0.267093    0.045975   -2.556631
     20          6           0        0.301401    0.451828   -1.705132
     21          6           0        0.696914   -0.673848   -0.726938
     22          1           0        1.197474    0.954178   -2.100749
     23          1           0       -0.325842    1.216440   -1.222374
     24          1           0        1.244934   -1.463815   -1.264479
     25          1           0       -0.204810   -1.148821   -0.303780
     26          6           0        1.583731   -0.219753    0.452355
     27          6           0        0.952666    0.821352    1.390594
     28          1           0        1.890750   -1.109136    1.027587
     29          1           0       -0.018965    0.420546    1.728257
     30          1           0        0.735309    1.740470    0.821133
     31          8           0        2.817991    0.410716   -0.073790
     32          6           0        3.831418   -0.433308   -0.454240
     33          8           0        3.778084   -1.655136   -0.391400
     34          6           0        5.018016    0.374785   -0.962631
     35          1           0        5.831138   -0.306427   -1.239503
     36          1           0        4.717189    0.974052   -1.836050
     37          1           0        5.359877    1.076442   -0.186382
     38          6           0        1.839873    1.154922    2.607297
     39          1           0        2.033562    0.255482    3.215306
     40          1           0        1.361781    1.905320    3.256038
     41          1           0        2.811132    1.553631    2.277658
 ---------------------------------------------------------------------

 The electronic state is 1-A.
 Alpha  occ. eigenvalues --  -18.82934 -18.78677 -18.77933 -10.04284  -9.97814
 Alpha  occ. eigenvalues --   -9.96698  -9.93389  -9.92785  -9.92409  -9.91938
 Alpha  occ. eigenvalues --   -9.91927  -9.91728  -9.91704  -9.91697  -9.90710
 Alpha  occ. eigenvalues --   -0.97861  -0.90524  -0.90234  -0.72225  -0.70121
 Alpha  occ. eigenvalues --   -0.67102  -0.66749  -0.66289  -0.60431  -0.59558
 Alpha  occ. eigenvalues --   -0.54871  -0.53142  -0.52974  -0.50097  -0.47051
 Alpha  occ. eigenvalues --   -0.45251  -0.42475  -0.41427  -0.39951  -0.39708
 Alpha  occ. eigenvalues --   -0.38800  -0.38036  -0.37699  -0.37620  -0.36138
 Alpha  occ. eigenvalues --   -0.35933  -0.35526  -0.34751  -0.34081  -0.32868
 Alpha  occ. eigenvalues --   -0.32498  -0.32017  -0.31250  -0.30814  -0.30168
 Alpha  occ. eigenvalues --   -0.29813  -0.29044  -0.28871  -0.28573  -0.28445
 Alpha  occ. eigenvalues --   -0.28268  -0.27123  -0.25955  -0.23993  -0.20993
 Alpha  occ. eigenvalues --   -0.20520
 Alpha virt. eigenvalues --   -0.01663   0.03108   0.05236   0.06942   0.07221
 Alpha virt. eigenvalues --    0.07861   0.08861   0.09480   0.09991   0.10565
 Alpha virt. eigenvalues --    0.11803   0.11926   0.12517   0.12912   0.13272

 Mulliken charges:
               1
     1  H    0.114799
     2  C   -0.295045
     3  C   -0.147415
     4  H    0.084395
     5  H    0.086978
     6  H    0.079455
     7  H    0.087384
     8  C    0.167990
     9  C   -0.144547
    10  H    0.058420
    11  H    0.078149
    12  H    0.084354
    13  O   -0.513962
    14  H    0.290091
    15  C   -0.309023
    16  H    0.091870
    17  H    0.093647
    18  H    0.088726
    19  H    0.088959
    20  C   -0.294447
    21  C   -0.182643
    22  H    0.098339
    23  H    0.103882
    24  H    0.106139
    25  H    0.096503
    26  C    0.172869
    27  C   -0.170552
    28  H    0.094745
    29  H    0.097155
    30  H    0.094007
    31  O   -0.434169
    32  C    0.548676
    33  O   -0.442706
    34  C   -0.348068
    35  H    0.125327
    36  H    0.126631
    37  H    0.126236
    38  C   -0.291702
    39  H    0.093447
    40  H    0.089423
    41  H    0.105681
 Sum of Mulliken charges =  -0.00000

 Dipole moment (field-independent basis, Debye):
    X=              0.2894    Y=              2.4930    Z=             -0.5916  Tot=              2.5785
 Quadrupole moment (field-independent basis, Debye-Ang):
   XX=           -101.8004   YY=           -101.3204   ZZ=            -91.6003
   XY=              4.2829   XZ=              2.2936   YZ=             -1.5392

 Normal termination of Gaussian 16 at Tue Jan 24 05:20:27 2023.
