 Gaussian 16, Revision A.03,
 Gaussian 16:  EM64L-G16RevA.03 25-Dec-2016

 -------------------------------------------
 #p opt blyp/6-31G** EmpiricalDispersion=GD3
 -------------------------------------------

 ------------------------------------------------
 Conformer number 066. Energy MM = 0.000 kcal/mol
 ------------------------------------------------
 Symbolic Z-matrix:
 Charge =  0 Multiplicity = 1

 SCF Done:  E(RB-LYP) =  -698.290225967     A.U. after   16 cycles
 SCF Done:  E(RB-LYP) =  -698.328082678     A.U. after   12 cycles
 SCF Done:  E(RB-LYP) =  -698.343870377     A.U. after   13 cycles
 SCF Done:  E(RB-LYP) =  -698.346263124     A.U. after   12 cycles
 SCF Done:  E(RB-LYP) =  -698.347485355     A.U. after   13 cycles
 SCF Done:  E(RB-LYP) =  -698.349346049     A.U. after   13 cycles
 SCF Done:  E(RB-LYP) =  -698.349918982     A.U. after   13 cycles
 SCF Done:  E(RB-LYP) =  -698.350323790     A.U. after   12 cycles
 SCF Done:  E(RB-LYP) =  -698.350620981     A.U. after   12 cycles
 SCF Done:  E(RB-LYP) =  -698.350851315     A.U. after   12 cycles
 SCF Done:  E(RB-LYP) =  -698.352056741     A.U. after    8 cycles
 SCF Done:  E(RB-LYP) =  -698.352057001     A.U. after    8 cycles
 SCF Done:  E(RB-LYP) =  -698.352057840     A.U. after    9 cycles
 SCF Done:  E(RB-LYP) =  -698.352057282     A.U. after    9 cycles
 SCF Done:  E(RB-LYP) =  -698.352058330     A.U. after   10 cycles
 SCF Done:  E(RB-LYP) =  -698.352057577     A.U. after    9 cycles
 SCF Done:  E(RB-LYP) =  -698.352057830     A.U. after    8 cycles
 SCF Done:  E(RB-LYP) =  -698.352058318     A.U. after    9 cycles
 SCF Done:  E(RB-LYP) =  -698.352057687     A.U. after    9 cycles
 SCF Done:  E(RB-LYP) =  -698.352057693     A.U. after    6 cycles
 Optimization completed.
    -- Stationary point found.

                         Standard orientation:
 ---------------------------------------------------------------------
 Center     Atomic      Atomic             Coordinates (Angstroms)
 Number     Number       Type             X           Y           Z
 ---------------------------------------------------------------------
      1          1           0        4.351980    1.510247   -1.671609
      2          6           0        5.189568    0.828646   -1.468836
      3          6           0        4.716698   -0.619047   -1.212651
      4          1           0        5.869215    0.869157   -2.334871
      5          1           0        5.725556    1.214688   -0.588615
      6          1           0        5.597193   -1.288513   -1.267918
      7          1           0        4.037332   -0.956675   -2.015900
      8          6           0        4.033052   -0.886753    0.158628
      9          6           0        2.601920   -0.332505    0.350947
     10          1           0        3.947957   -1.992071    0.252755
     11          1           0        2.224496   -0.765475    1.293432
     12          1           0        1.966839   -0.742551   -0.453251
     13          8           0        4.822414   -0.368958    1.259234
     14          1           0        5.723218   -0.735152    1.163004
     15          6           0        2.458418    1.203846    0.424102
     16          1           0        2.565269    1.679693   -0.561632
     17          1           0        3.220089    1.629053    1.093262
     18          1           0        1.466150    1.478376    0.815031
     19          1           0       -0.595058    2.230036   -0.315828
     20          6           0       -1.680705    2.406524   -0.258808
     21          6           0       -2.330714    1.644164    0.915363
     22          1           0       -1.835089    3.491497   -0.151371
     23          1           0       -2.123199    2.091678   -1.216638
     24          1           0       -3.386913    1.939358    1.019718
     25          1           0       -1.834041    1.910344    1.865779
     26          6           0       -2.293756    0.105904    0.784150
     27          6           0       -0.888324   -0.506133    0.693122
     28          1           0       -2.850679   -0.337212    1.626504
     29          1           0       -0.302638   -0.131162    1.550188
     30          1           0       -0.390233   -0.128125   -0.213894
     31          8           0       -2.987774   -0.299417   -0.462436
     32          6           0       -4.356205   -0.383775   -0.411651
     33          8           0       -5.031395   -0.145815    0.582078
     34          6           0       -4.901453   -0.811808   -1.768072
     35          1           0       -4.451784   -1.768984   -2.073533
     36          1           0       -5.991825   -0.909111   -1.708525
     37          1           0       -4.633253   -0.065470   -2.532022
     38          6           0       -0.890004   -2.047331    0.684973
     39          1           0        0.135015   -2.442129    0.607899
     40          1           0       -1.472083   -2.428084   -0.168011
     41          1           0       -1.340431   -2.450286    1.607431
 ---------------------------------------------------------------------

 The electronic state is 1-A.
 Alpha  occ. eigenvalues --  -18.82675 -18.78866 -18.77688 -10.04047  -9.97479
 Alpha  occ. eigenvalues --   -9.96952  -9.93194  -9.92324  -9.92309  -9.92125
 Alpha  occ. eigenvalues --   -9.91846  -9.91404  -9.91264  -9.91110  -9.90727
 Alpha  occ. eigenvalues --   -0.97603  -0.90706  -0.89979  -0.71898  -0.69937
 Alpha  occ. eigenvalues --   -0.66727  -0.66182  -0.66022  -0.60090  -0.59923
 Alpha  occ. eigenvalues --   -0.54518  -0.54072  -0.52796  -0.49218  -0.46712
 Alpha  occ. eigenvalues --   -0.43105  -0.42229  -0.41143  -0.40670  -0.39615
 Alpha  occ. eigenvalues --   -0.38952  -0.38500  -0.37759  -0.37365  -0.36236
 Alpha  occ. eigenvalues --   -0.35624  -0.34805  -0.34452  -0.32514  -0.32337
 Alpha  occ. eigenvalues --   -0.32207  -0.32022  -0.31652  -0.31231  -0.30687
 Alpha  occ. eigenvalues --   -0.29427  -0.29083  -0.28488  -0.28192  -0.28018
 Alpha  occ. eigenvalues --   -0.27677  -0.26774  -0.25534  -0.23720  -0.20748
 Alpha  occ. eigenvalues --   -0.20627
 Alpha virt. eigenvalues --   -0.01422   0.03323   0.05474   0.07404   0.07833
 Alpha virt. eigenvalues --    0.08284   0.08882   0.09518   0.09705   0.10722
 Alpha virt. eigenvalues --    0.11696   0.12418   0.13018   0.13258   0.13448

 Mulliken charges:
               1
     1  H    0.098344
     2  C   -0.279948
     3  C   -0.165307
     4  H    0.082673
     5  H    0.098171
     6  H    0.068065
     7  H    0.077552
     8  C    0.172825
     9  C   -0.146250
    10  H    0.051123
    11  H    0.091427
    12  H    0.079023
    13  O   -0.507665
    14  H    0.286158
    15  C   -0.301102
    16  H    0.091153
    17  H    0.116915
    18  H    0.089320
    19  H    0.100753
    20  C   -0.296213
    21  C   -0.163674
    22  H    0.089476
    23  H    0.100084
    24  H    0.104716
    25  H    0.081785
    26  C    0.166911
    27  C   -0.158275
    28  H    0.093816
    29  H    0.090053
    30  H    0.098760
    31  O   -0.434089
    32  C    0.549152
    33  O   -0.443699
    34  C   -0.347915
    35  H    0.125258
    36  H    0.124558
    37  H    0.126535
    38  C   -0.297147
    39  H    0.091295
    40  H    0.103093
    41  H    0.092291
 Sum of Mulliken charges =  -0.00000

 Dipole moment (field-independent basis, Debye):
    X=              2.2407    Y=             -0.9374    Z=             -1.9172  Tot=              3.0943
 Quadrupole moment (field-independent basis, Debye-Ang):
   XX=            -99.3528   YY=            -94.3070   ZZ=            -96.2213
   XY=             -3.6943   XZ=              5.3828   YZ=              0.5966

 Normal termination of Gaussian 16 at Tue Jan 24 02:46:24 2023.
