 Gaussian 16, Revision A.03,
 Gaussian 16:  EM64L-G16RevA.03 25-Dec-2016

 -------------------------------------------
 #p opt blyp/6-31G** EmpiricalDispersion=GD3
 -------------------------------------------

 ------------------------------------------------
 Conformer number 007. Energy MM = 0.000 kcal/mol
 ------------------------------------------------
 Symbolic Z-matrix:
 Charge =  0 Multiplicity = 1

 SCF Done:  E(RB-LYP) =  -698.274396071     A.U. after   16 cycles
 SCF Done:  E(RB-LYP) =  -698.325619989     A.U. after   12 cycles
 SCF Done:  E(RB-LYP) =  -698.335587846     A.U. after   15 cycles
 SCF Done:  E(RB-LYP) =  -698.347248573     A.U. after   15 cycles
 SCF Done:  E(RB-LYP) =  -698.347274303     A.U. after   13 cycles
 SCF Done:  E(RB-LYP) =  -698.358156277     A.U. after   11 cycles
 SCF Done:  E(RB-LYP) =  -698.365858947     A.U. after   13 cycles
 SCF Done:  E(RB-LYP) =  -698.299993218     A.U. after   15 cycles
 SCF Done:  E(RB-LYP) =  -698.369264271     A.U. after   13 cycles
 SCF Done:  E(RB-LYP) =  -698.371907283     A.U. after   13 cycles
 SCF Done:  E(RB-LYP) =  -698.376863125     A.U. after    7 cycles
 SCF Done:  E(RB-LYP) =  -698.376863152     A.U. after    6 cycles
 SCF Done:  E(RB-LYP) =  -698.376863160     A.U. after    6 cycles
 SCF Done:  E(RB-LYP) =  -698.376863160     A.U. after    6 cycles
 SCF Done:  E(RB-LYP) =  -698.376863143     A.U. after    6 cycles
 SCF Done:  E(RB-LYP) =  -698.376863121     A.U. after    6 cycles
 SCF Done:  E(RB-LYP) =  -698.376863098     A.U. after    6 cycles
 SCF Done:  E(RB-LYP) =  -698.376863096     A.U. after    6 cycles
 SCF Done:  E(RB-LYP) =  -698.376863118     A.U. after    6 cycles
 SCF Done:  E(RB-LYP) =  -698.376863127     A.U. after    6 cycles
 Optimization completed.
    -- Stationary point found.

                         Standard orientation:
 ---------------------------------------------------------------------
 Center     Atomic      Atomic             Coordinates (Angstroms)
 Number     Number       Type             X           Y           Z
 ---------------------------------------------------------------------
      1          1           0       -4.482804   -2.412769   -0.299108
      2          6           0       -4.018476   -1.596044    0.276308
      3          6           0       -3.337605   -0.568366   -0.649352
      4          1           0       -4.805878   -1.120008    0.885113
      5          1           0       -3.281839   -2.029500    0.968898
      6          1           0       -4.082910   -0.105738   -1.321820
      7          1           0       -2.600009   -1.076920   -1.296987
      8          6           0       -2.604550    0.549279    0.130278
      9          6           0       -1.947654    1.590283   -0.810162
     10          1           0       -3.332887    1.067898    0.783247
     11          1           0       -2.698467    1.949316   -1.537542
     12          1           0       -1.167940    1.068874   -1.395185
     13          8           0       -1.626521   -0.009399    1.042045
     14          1           0       -1.049590   -0.590926    0.494100
     15          6           0       -1.339830    2.786466   -0.050049
     16          1           0       -2.127532    3.378814    0.445271
     17          1           0       -0.786388    3.460595   -0.723517
     18          1           0       -0.651941    2.436125    0.734127
     19          1           0        1.022261    2.033855   -1.746749
     20          6           0        2.105440    1.907162   -1.594114
     21          6           0        2.434283    1.700733   -0.101786
     22          1           0        2.432719    1.040744   -2.189405
     23          1           0        2.610501    2.801362   -1.991276
     24          1           0        2.113360    2.583204    0.478517
     25          1           0        3.525136    1.603742    0.040384
     26          6           0        1.738416    0.475676    0.512476
     27          6           0        2.065949    0.239939    1.995656
     28          1           0        0.651959    0.547494    0.380012
     29          1           0        1.839362    1.177271    2.533849
     30          1           0        3.153224    0.071775    2.094100
     31          8           0        2.220138   -0.710261   -0.252650
     32          6           0        1.320504   -1.550812   -0.821561
     33          8           0        0.094195   -1.470461   -0.722412
     34          6           0        2.034066   -2.622102   -1.632452
     35          1           0        1.310574   -3.378474   -1.958159
     36          1           0        2.507722   -2.160445   -2.513364
     37          1           0        2.832645   -3.085258   -1.034568
     38          6           0        1.273319   -0.924582    2.624755
     39          1           0        0.191430   -0.729761    2.579814
     40          1           0        1.557070   -1.066778    3.679335
     41          1           0        1.474549   -1.869320    2.095061
 ---------------------------------------------------------------------

 The electronic state is 1-A.
 Alpha  occ. eigenvalues --  -18.84087 -18.79636 -18.76447 -10.05859  -9.97762
 Alpha  occ. eigenvalues --   -9.95156  -9.94151  -9.92872  -9.92516  -9.91777
 Alpha  occ. eigenvalues --   -9.90827  -9.90816  -9.90475  -9.90451  -9.89750
 Alpha  occ. eigenvalues --   -0.99155  -0.91668  -0.88449  -0.72565  -0.68553
 Alpha  occ. eigenvalues --   -0.67204  -0.66922  -0.65433  -0.60613  -0.58093
 Alpha  occ. eigenvalues --   -0.53995  -0.53359  -0.51717  -0.50370  -0.48894
 Alpha  occ. eigenvalues --   -0.44018  -0.42260  -0.40776  -0.40069  -0.38635
 Alpha  occ. eigenvalues --   -0.38343  -0.38067  -0.37919  -0.37511  -0.36216
 Alpha  occ. eigenvalues --   -0.35786  -0.35307  -0.34239  -0.33428  -0.32995
 Alpha  occ. eigenvalues --   -0.32336  -0.31310  -0.30758  -0.30652  -0.29653
 Alpha  occ. eigenvalues --   -0.29161  -0.29131  -0.28765  -0.27971  -0.27508
 Alpha  occ. eigenvalues --   -0.27106  -0.26887  -0.24802  -0.24347  -0.22439
 Alpha  occ. eigenvalues --   -0.18877
 Alpha virt. eigenvalues --   -0.03040   0.05121   0.06709   0.07608   0.07817
 Alpha virt. eigenvalues --    0.08195   0.10116   0.10659   0.11164   0.11648
 Alpha virt. eigenvalues --    0.12277   0.12435   0.13044   0.13511   0.13756

 Mulliken charges:
               1
     1  H    0.077567
     2  C   -0.279706
     3  C   -0.166165
     4  H    0.083646
     5  H    0.103732
     6  H    0.067035
     7  H    0.091048
     8  C    0.187306
     9  C   -0.156602
    10  H    0.062700
    11  H    0.068331
    12  H    0.083803
    13  O   -0.546636
    14  H    0.324982
    15  C   -0.291388
    16  H    0.085095
    17  H    0.080205
    18  H    0.107174
    19  H    0.112363
    20  C   -0.306452
    21  C   -0.148318
    22  H    0.096301
    23  H    0.090777
    24  H    0.091904
    25  H    0.085938
    26  C    0.136258
    27  C   -0.144140
    28  H    0.109797
    29  H    0.089553
    30  H    0.083742
    31  O   -0.423235
    32  C    0.559131
    33  O   -0.455189
    34  C   -0.349989
    35  H    0.128674
    36  H    0.133713
    37  H    0.130789
    38  C   -0.311503
    39  H    0.132769
    40  H    0.085522
    41  H    0.089468
 Sum of Mulliken charges =  -0.00000

 Dipole moment (field-independent basis, Debye):
    X=              2.4623    Y=              0.0228    Z=             -1.3505  Tot=              2.8084
 Quadrupole moment (field-independent basis, Debye-Ang):
   XX=            -94.3300   YY=            -92.4522   ZZ=            -95.9543
   XY=             -3.3067   XZ=              0.7900   YZ=              2.2198

 Normal termination of Gaussian 16 at Tue Jan 24 01:18:05 2023.
