 Gaussian 16, Revision A.03,
 Gaussian 16:  EM64L-G16RevA.03 25-Dec-2016

 ---------------------
 #p opt mp2/6-31g(d,p)
 ---------------------

 ------------------------------------------------
 Conformer number 002. Energy MM = 1.659 kcal/mol
 ------------------------------------------------
 Symbolic Z-matrix:
 Charge =  0 Multiplicity = 1

 SCF Done:  E(RHF) =  -271.203682312     A.U. after   12 cycles
 E2 =    -0.9159607455D+00 EUMP2 =    -0.27211964305794D+03
 SCF Done:  E(RHF) =  -271.204958223     A.U. after   10 cycles
 E2 =    -0.9164729761D+00 EUMP2 =    -0.27212143119916D+03
 SCF Done:  E(RHF) =  -271.205411317     A.U. after   10 cycles
 E2 =    -0.9162222712D+00 EUMP2 =    -0.27212163358825D+03
 SCF Done:  E(RHF) =  -271.205391449     A.U. after    9 cycles
 E2 =    -0.9162481552D+00 EUMP2 =    -0.27212163960454D+03
 SCF Done:  E(RHF) =  -271.205398499     A.U. after    8 cycles
 E2 =    -0.9162420494D+00 EUMP2 =    -0.27212164054885D+03
 SCF Done:  E(RHF) =  -271.205395024     A.U. after    7 cycles
 E2 =    -0.9162458445D+00 EUMP2 =    -0.27212164086870D+03
 SCF Done:  E(RHF) =  -271.205394204     A.U. after    7 cycles
 E2 =    -0.9162467771D+00 EUMP2 =    -0.27212164098109D+03
 SCF Done:  E(RHF) =  -271.205392500     A.U. after    7 cycles
 E2 =    -0.9162485241D+00 EUMP2 =    -0.27212164102453D+03
 Optimization completed.
    -- Stationary point found.

                         Standard orientation:
 ---------------------------------------------------------------------
 Center     Atomic      Atomic             Coordinates (Angstroms)
 Number     Number       Type             X           Y           Z
 ---------------------------------------------------------------------
      1          6           0       -2.265874   -0.753681    0.141888
      2          1           0       -2.759266    0.182774   -0.104016
      3          1           0       -2.299864   -0.880490    1.224540
      4          1           0       -2.825943   -1.572135   -0.308944
      5          6           0       -0.824361   -0.741636   -0.352790
      6          1           0       -0.349119   -1.699080   -0.132629
      7          1           0       -0.800185   -0.610029   -1.437624
      8          6           0        0.001128    0.372267    0.268941
      9          1           0        0.004817    0.236256    1.361627
     10          6           0        1.445525    0.410438   -0.222863
     11          1           0        1.920773    1.302692    0.197379
     12          1           0        1.429445    0.547121   -1.306335
     13          6           0        2.270636   -0.815716    0.153770
     14          1           0        1.911107   -1.711147   -0.349723
     15          1           0        3.314992   -0.678469   -0.122837
     16          1           0        2.231743   -0.996150    1.228675
     17          8           0       -0.670044    1.592135   -0.066821
     18          1           0       -0.180475    2.311550    0.350782
 ---------------------------------------------------------------------

 The electronic state is 1-A.
 Alpha  occ. eigenvalues --  -20.55412 -11.27287 -11.22085 -11.21810 -11.21267
 Alpha  occ. eigenvalues --  -11.20210  -1.34984  -1.07179  -1.01744  -0.91300
 Alpha  occ. eigenvalues --   -0.84016  -0.77503  -0.69711  -0.62258  -0.60849
 Alpha  occ. eigenvalues --   -0.58506  -0.57300  -0.55122  -0.52726  -0.49964
 Alpha  occ. eigenvalues --   -0.49259  -0.49136  -0.47127  -0.44768  -0.42431
 Alpha virt. eigenvalues --    0.21963   0.24481   0.26384   0.27310   0.29250
 Alpha virt. eigenvalues --    0.30986   0.32398   0.33245   0.33847   0.34243
 Alpha virt. eigenvalues --    0.35989   0.37271   0.41879   0.42589   0.44118

 Mulliken charges:
               1
     1  C   -0.333431
     2  H    0.143538
     3  H    0.101365
     4  H    0.106252
     5  C   -0.217227
     6  H    0.107875
     7  H    0.118339
     8  C    0.216821
     9  H    0.089876
    10  C   -0.228186
    11  H    0.096020
    12  H    0.123895
    13  C   -0.346077
    14  H    0.118849
    15  H    0.119030
    16  H    0.110786
    17  O   -0.663376
    18  H    0.335651
 Sum of Mulliken charges =  -0.00000

 Dipole moment (field-independent basis, Debye):
    X=              1.5370    Y=             -0.1115    Z=              0.8449  Tot=              1.7574
 Quadrupole moment (field-independent basis, Debye-Ang):
   XX=            -41.6878   YY=            -38.2538   ZZ=            -39.7338
   XY=              2.5281   XZ=             -0.0304   YZ=              2.1867

 Normal termination of Gaussian 16 at Sun Sep 19 19:59:46 2021.
