 Gaussian 16, Revision A.03,
 Gaussian 16:  EM64L-G16RevA.03 25-Dec-2016

 ---------------------
 #p opt mp2/6-31g(d,p)
 ---------------------

 ------------------------------------------------
 Conformer number 005. Energy MM = 2.137 kcal/mol
 ------------------------------------------------
 Symbolic Z-matrix:
 Charge =  0 Multiplicity = 1

 SCF Done:  E(RHF) =  -271.202333596     A.U. after   12 cycles
 E2 =    -0.9168126275D+00 EUMP2 =    -0.27211914622383D+03
 SCF Done:  E(RHF) =  -271.203372601     A.U. after   10 cycles
 E2 =    -0.9173342875D+00 EUMP2 =    -0.27212070688850D+03
 SCF Done:  E(RHF) =  -271.204039320     A.U. after   10 cycles
 E2 =    -0.9169645994D+00 EUMP2 =    -0.27212100391983D+03
 SCF Done:  E(RHF) =  -271.203978046     A.U. after    9 cycles
 E2 =    -0.9170780452D+00 EUMP2 =    -0.27212105609116D+03
 SCF Done:  E(RHF) =  -271.203959341     A.U. after    9 cycles
 E2 =    -0.9171082966D+00 EUMP2 =    -0.27212106763806D+03
 SCF Done:  E(RHF) =  -271.203938431     A.U. after    8 cycles
 E2 =    -0.9171313527D+00 EUMP2 =    -0.27212106978331D+03
 SCF Done:  E(RHF) =  -271.203931430     A.U. after    8 cycles
 E2 =    -0.9171397042D+00 EUMP2 =    -0.27212107113452D+03
 SCF Done:  E(RHF) =  -271.203934057     A.U. after    8 cycles
 E2 =    -0.9171373665D+00 EUMP2 =    -0.27212107142340D+03
 Optimization completed.
    -- Stationary point found.

                         Standard orientation:
 ---------------------------------------------------------------------
 Center     Atomic      Atomic             Coordinates (Angstroms)
 Number     Number       Type             X           Y           Z
 ---------------------------------------------------------------------
      1          6           0       -1.445690   -1.284611   -0.523379
      2          1           0       -0.645988   -1.731693   -1.113065
      3          1           0       -1.973715   -0.569256   -1.149972
      4          1           0       -2.138238   -2.080934   -0.253271
      5          6           0       -0.909311   -0.594810    0.725947
      6          1           0       -1.743576   -0.268904    1.349594
      7          1           0       -0.322290   -1.292815    1.326157
      8          6           0       -0.065623    0.639589    0.435135
      9          1           0        0.304588    1.030369    1.394335
     10          6           0        1.136387    0.387233   -0.470701
     11          1           0        1.651451    1.342110   -0.618373
     12          1           0        0.775125    0.077252   -1.452241
     13          6           0        2.123293   -0.632794    0.085993
     14          1           0        1.683123   -1.627758    0.130352
     15          1           0        3.014385   -0.691837   -0.537318
     16          1           0        2.438704   -0.360535    1.093860
     17          8           0       -0.955711    1.589632   -0.162729
     18          1           0       -0.432217    2.369305   -0.386199
 ---------------------------------------------------------------------

 The electronic state is 1-A.
 Alpha  occ. eigenvalues --  -20.55365 -11.27268 -11.22069 -11.21845 -11.21270
 Alpha  occ. eigenvalues --  -11.20383  -1.34909  -1.07365  -1.01375  -0.91428
 Alpha  occ. eigenvalues --   -0.85291  -0.75915  -0.69337  -0.64651  -0.59096
 Alpha  occ. eigenvalues --   -0.58549  -0.57163  -0.56135  -0.51861  -0.51039
 Alpha  occ. eigenvalues --   -0.49764  -0.48191  -0.47282  -0.44810  -0.42250
 Alpha virt. eigenvalues --    0.21439   0.24067   0.26790   0.28191   0.29331
 Alpha virt. eigenvalues --    0.30410   0.32203   0.33520   0.34819   0.35626
 Alpha virt. eigenvalues --    0.36408   0.37433   0.40029   0.40921   0.43033

 Mulliken charges:
               1
     1  C   -0.343896
     2  H    0.103064
     3  H    0.141733
     4  H    0.110262
     5  C   -0.219454
     6  H    0.128734
     7  H    0.106726
     8  C    0.215236
     9  H    0.094661
    10  C   -0.238317
    11  H    0.096830
    12  H    0.127741
    13  C   -0.345369
    14  H    0.119404
    15  H    0.118852
    16  H    0.111512
    17  O   -0.662843
    18  H    0.335124
 Sum of Mulliken charges =  -0.00000

 Dipole moment (field-independent basis, Debye):
    X=              1.7274    Y=              0.1868    Z=              0.1822  Tot=              1.7470
 Quadrupole moment (field-independent basis, Debye-Ang):
   XX=            -42.3430   YY=            -37.4498   ZZ=            -39.9799
   XY=              2.8668   XZ=             -0.5524   YZ=             -0.6143

 Normal termination of Gaussian 16 at Sun Sep 19 19:59:47 2021.
