 Gaussian 16, Revision A.03,
 Gaussian 16:  EM64L-G16RevA.03 25-Dec-2016

 ---------------------
 #p opt mp2/6-31g(d,p)
 ---------------------

 ------------------------------------------------
 Conformer number 003. Energy MM = 1.793 kcal/mol
 ------------------------------------------------
 Symbolic Z-matrix:
 Charge =  0 Multiplicity = 1

 SCF Done:  E(RHF) =  -271.203641005     A.U. after   11 cycles
 E2 =    -0.9163571997D+00 EUMP2 =    -0.27211999820454D+03
 SCF Done:  E(RHF) =  -271.204933900     A.U. after   10 cycles
 E2 =    -0.9167464494D+00 EUMP2 =    -0.27212168034991D+03
 SCF Done:  E(RHF) =  -271.205369464     A.U. after   10 cycles
 E2 =    -0.9165131080D+00 EUMP2 =    -0.27212188257209D+03
 SCF Done:  E(RHF) =  -271.205291196     A.U. after    9 cycles
 E2 =    -0.9166179949D+00 EUMP2 =    -0.27212190919081D+03
 SCF Done:  E(RHF) =  -271.205282645     A.U. after    9 cycles
 E2 =    -0.9166324168D+00 EUMP2 =    -0.27212191506129D+03
 SCF Done:  E(RHF) =  -271.205279031     A.U. after    8 cycles
 E2 =    -0.9166387999D+00 EUMP2 =    -0.27212191783068D+03
 SCF Done:  E(RHF) =  -271.205291343     A.U. after    8 cycles
 E2 =    -0.9166271534D+00 EUMP2 =    -0.27212191849636D+03
 SCF Done:  E(RHF) =  -271.205297432     A.U. after    7 cycles
 E2 =    -0.9166212866D+00 EUMP2 =    -0.27212191871882D+03
 SCF Done:  E(RHF) =  -271.205299087     A.U. after    7 cycles
 E2 =    -0.9166196819D+00 EUMP2 =    -0.27212191876912D+03
 Optimization completed.
    -- Stationary point found.

                         Standard orientation:
 ---------------------------------------------------------------------
 Center     Atomic      Atomic             Coordinates (Angstroms)
 Number     Number       Type             X           Y           Z
 ---------------------------------------------------------------------
      1          6           0       -2.407678   -0.336156   -0.100516
      2          1           0       -2.519216    0.537882   -0.737411
      3          1           0       -2.777871   -0.081906    0.893319
      4          1           0       -3.032307   -1.136189   -0.496071
      5          6           0       -0.945014   -0.759791   -0.040740
      6          1           0       -0.831084   -1.643276    0.592723
      7          1           0       -0.599496   -1.030707   -1.039474
      8          6           0       -0.043063    0.337964    0.499008
      9          1           0       -0.443698    0.662924    1.470358
     10          6           0        1.407701   -0.097431    0.705559
     11          1           0        1.432803   -0.876004    1.472628
     12          1           0        1.958860    0.753541    1.118951
     13          6           0        2.096736   -0.577792   -0.566505
     14          1           0        1.978733    0.160112   -1.357430
     15          1           0        3.161064   -0.733505   -0.395083
     16          1           0        1.677392   -1.519475   -0.916371
     17          8           0       -0.127502    1.418120   -0.440127
     18          1           0        0.362741    2.160879   -0.065958
 ---------------------------------------------------------------------

 The electronic state is 1-A.
 Alpha  occ. eigenvalues --  -20.55549 -11.27329 -11.22051 -11.21279 -11.20870
 Alpha  occ. eigenvalues --  -11.20322  -1.35043  -1.06925  -1.01594  -0.91403
 Alpha  occ. eigenvalues --   -0.84057  -0.76807  -0.68683  -0.63612  -0.61551
 Alpha  occ. eigenvalues --   -0.58306  -0.56974  -0.53666  -0.52358  -0.50918
 Alpha  occ. eigenvalues --   -0.49245  -0.47835  -0.47717  -0.44494  -0.42478
 Alpha virt. eigenvalues --    0.21227   0.25757   0.26625   0.27977   0.29309
 Alpha virt. eigenvalues --    0.32340   0.32625   0.32982   0.33343   0.34422
 Alpha virt. eigenvalues --    0.35793   0.36606   0.40590   0.43089   0.43694

 Mulliken charges:
               1
     1  C   -0.336309
     2  H    0.141523
     3  H    0.101086
     4  H    0.107931
     5  C   -0.215097
     6  H    0.103807
     7  H    0.125836
     8  C    0.200984
     9  H    0.095540
    10  C   -0.228160
    11  H    0.110432
    12  H    0.097295
    13  C   -0.339731
    14  H    0.133088
    15  H    0.110327
    16  H    0.113915
    17  O   -0.658510
    18  H    0.336043
 Sum of Mulliken charges =  -0.00000

 Dipole moment (field-independent basis, Debye):
    X=              0.8963    Y=              0.0727    Z=              1.3938  Tot=              1.6587
 Quadrupole moment (field-independent basis, Debye-Ang):
   XX=            -40.6553   YY=            -37.5400   ZZ=            -40.6704
   XY=              2.1868   XZ=              0.0127   YZ=              1.8945

 Normal termination of Gaussian 16 at Sun Sep 19 20:00:24 2021.
