 Gaussian 16, Revision A.03,
 Gaussian 16:  EM64L-G16RevA.03 25-Dec-2016

 ---------------------
 #p opt mp2/6-31g(d,p)
 ---------------------

 ------------------------------------------------
 Conformer number 000. Energy MM = 1.411 kcal/mol
 ------------------------------------------------
 Symbolic Z-matrix:
 Charge =  0 Multiplicity = 1

 SCF Done:  E(RHF) =  -271.204813245     A.U. after   11 cycles
 E2 =    -0.9159186529D+00 EUMP2 =    -0.27212073189784D+03
 SCF Done:  E(RHF) =  -271.206400016     A.U. after   10 cycles
 E2 =    -0.9159836907D+00 EUMP2 =    -0.27212238370701D+03
 SCF Done:  E(RHF) =  -271.206463377     A.U. after   10 cycles
 E2 =    -0.9160638830D+00 EUMP2 =    -0.27212252726025D+03
 SCF Done:  E(RHF) =  -271.206465952     A.U. after    9 cycles
 E2 =    -0.9160771637D+00 EUMP2 =    -0.27212254311577D+03
 SCF Done:  E(RHF) =  -271.206451766     A.U. after    8 cycles
 E2 =    -0.9160932161D+00 EUMP2 =    -0.27212254498164D+03
 SCF Done:  E(RHF) =  -271.206448414     A.U. after    8 cycles
 E2 =    -0.9160970443D+00 EUMP2 =    -0.27212254545864D+03
 SCF Done:  E(RHF) =  -271.206450736     A.U. after    7 cycles
 E2 =    -0.9160948721D+00 EUMP2 =    -0.27212254560783D+03
 SCF Done:  E(RHF) =  -271.206453368     A.U. after    7 cycles
 E2 =    -0.9160923600D+00 EUMP2 =    -0.27212254572776D+03
 Optimization completed.
    -- Stationary point found.

                         Standard orientation:
 ---------------------------------------------------------------------
 Center     Atomic      Atomic             Coordinates (Angstroms)
 Number     Number       Type             X           Y           Z
 ---------------------------------------------------------------------
      1          6           0       -2.544558   -0.002874    0.243132
      2          1           0       -2.574904    1.025262   -0.108412
      3          1           0       -2.583870    0.008963    1.332979
      4          1           0       -3.432345   -0.520662   -0.117977
      5          6           0       -1.273796   -0.687837   -0.243346
      6          1           0       -1.244779   -1.724347    0.101285
      7          1           0       -1.254829   -0.711556   -1.335563
      8          6           0       -0.007934    0.010078    0.224984
      9          1           0       -0.026475    0.074656    1.323633
     10          6           0        1.256528   -0.730036   -0.199183
     11          1           0        1.232644   -0.847343   -1.284898
     12          1           0        1.233718   -1.732442    0.235928
     13          6           0        2.537803   -0.016168    0.216269
     14          1           0        2.564123    0.144732    1.295291
     15          1           0        3.418718   -0.595986   -0.054255
     16          1           0        2.620396    0.951238   -0.277858
     17          8           0       -0.046864    1.328658   -0.335631
     18          1           0        0.614266    1.859250    0.123755
 ---------------------------------------------------------------------

 The electronic state is 1-A.
 Alpha  occ. eigenvalues --  -20.55461 -11.27291 -11.21899 -11.21819 -11.21296
 Alpha  occ. eigenvalues --  -11.20300  -1.35013  -1.06907  -1.02136  -0.91931
 Alpha  occ. eigenvalues --   -0.82598  -0.77939  -0.70078  -0.63706  -0.59888
 Alpha  occ. eigenvalues --   -0.57952  -0.57480  -0.55147  -0.52496  -0.50669
 Alpha  occ. eigenvalues --   -0.48938  -0.48568  -0.47608  -0.45056  -0.42385
 Alpha virt. eigenvalues --    0.21353   0.25609   0.26702   0.27556   0.29405
 Alpha virt. eigenvalues --    0.30404   0.32281   0.32932   0.33527   0.34814
 Alpha virt. eigenvalues --    0.35683   0.37353   0.39209   0.43481   0.44038

 Mulliken charges:
               1
     1  C   -0.336392
     2  H    0.141609
     3  H    0.100486
     4  H    0.107933
     5  C   -0.212167
     6  H    0.104197
     7  H    0.121146
     8  C    0.201613
     9  H    0.090449
    10  C   -0.211685
    11  H    0.121212
    12  H    0.107545
    13  C   -0.357215
    14  H    0.107097
    15  H    0.122977
    16  H    0.111820
    17  O   -0.662069
    18  H    0.341446
 Sum of Mulliken charges =  -0.00000

 Dipole moment (field-independent basis, Debye):
    X=              1.1464    Y=             -0.5516    Z=              1.1266  Tot=              1.6994
 Quadrupole moment (field-independent basis, Debye-Ang):
   XX=            -39.8787   YY=            -39.4369   ZZ=            -40.2792
   XY=              2.0787   XZ=              0.2947   YZ=              1.7995

 Normal termination of Gaussian 16 at Sun Sep 19 19:59:39 2021.
