 Gaussian 16, Revision A.03,
 Gaussian 16:  EM64L-G16RevA.03 25-Dec-2016

 ---------------------
 #p opt mp2/6-31g(d,p)
 ---------------------

 ------------------------------------------------
 Conformer number 004. Energy MM = 2.201 kcal/mol
 ------------------------------------------------
 Symbolic Z-matrix:
 Charge =  0 Multiplicity = 1

 SCF Done:  E(RHF) =  -271.203101362     A.U. after   12 cycles
 E2 =    -0.9164744137D+00 EUMP2 =    -0.27211957577533D+03
 SCF Done:  E(RHF) =  -271.204285022     A.U. after   10 cycles
 E2 =    -0.9166209303D+00 EUMP2 =    -0.27212090595199D+03
 SCF Done:  E(RHF) =  -271.204535905     A.U. after    9 cycles
 E2 =    -0.9164958958D+00 EUMP2 =    -0.27212103180112D+03
 SCF Done:  E(RHF) =  -271.204460750     A.U. after    9 cycles
 E2 =    -0.9165813223D+00 EUMP2 =    -0.27212104207279D+03
 SCF Done:  E(RHF) =  -271.204453220     A.U. after    8 cycles
 E2 =    -0.9165906670D+00 EUMP2 =    -0.27212104388714D+03
 SCF Done:  E(RHF) =  -271.204440080     A.U. after    8 cycles
 E2 =    -0.9166047099D+00 EUMP2 =    -0.27212104478948D+03
 SCF Done:  E(RHF) =  -271.204445186     A.U. after    8 cycles
 E2 =    -0.9165999114D+00 EUMP2 =    -0.27212104509780D+03
 SCF Done:  E(RHF) =  -271.204453777     A.U. after    8 cycles
 E2 =    -0.9165915971D+00 EUMP2 =    -0.27212104537412D+03
 SCF Done:  E(RHF) =  -271.204455192     A.U. after    7 cycles
 E2 =    -0.9165902101D+00 EUMP2 =    -0.27212104540224D+03
 Optimization completed.
    -- Stationary point found.

                         Standard orientation:
 ---------------------------------------------------------------------
 Center     Atomic      Atomic             Coordinates (Angstroms)
 Number     Number       Type             X           Y           Z
 ---------------------------------------------------------------------
      1          6           0       -2.107916   -0.522058   -0.597899
      2          1           0       -1.675987   -1.428557   -1.019109
      3          1           0       -2.023317    0.272355   -1.335843
      4          1           0       -3.165321   -0.714420   -0.420031
      5          6           0       -1.415773   -0.114381    0.698619
      6          1           0       -1.953045    0.722958    1.147415
      7          1           0       -1.443654   -0.935413    1.419436
      8          6           0        0.033672    0.320213    0.521211
      9          1           0        0.417738    0.626747    1.505332
     10          6           0        0.944618   -0.778810   -0.018394
     11          1           0        0.576394   -1.094840   -0.995052
     12          1           0        0.877300   -1.641638    0.649635
     13          6           0        2.399509   -0.338140   -0.141263
     14          1           0        2.783408    0.019926    0.815235
     15          1           0        3.034484   -1.159906   -0.468285
     16          1           0        2.505805    0.461602   -0.874248
     17          8           0        0.006828    1.452935   -0.356338
     18          1           0        0.886913    1.846754   -0.347419
 ---------------------------------------------------------------------

 The electronic state is 1-A.
 Alpha  occ. eigenvalues --  -20.55382 -11.27296 -11.22025 -11.21829 -11.21324
 Alpha  occ. eigenvalues --  -11.20263  -1.34943  -1.06957  -1.01901  -0.91776
 Alpha  occ. eigenvalues --   -0.84196  -0.76437  -0.69751  -0.63351  -0.60935
 Alpha  occ. eigenvalues --   -0.58891  -0.57335  -0.53787  -0.52917  -0.50872
 Alpha  occ. eigenvalues --   -0.49837  -0.48250  -0.47069  -0.45018  -0.42181
 Alpha virt. eigenvalues --    0.21224   0.25373   0.26700   0.27507   0.29395
 Alpha virt. eigenvalues --    0.31179   0.32542   0.32827   0.33557   0.34541
 Alpha virt. eigenvalues --    0.36454   0.37734   0.41053   0.41815   0.43897

 Mulliken charges:
               1
     1  C   -0.342624
     2  H    0.104455
     3  H    0.143205
     4  H    0.108874
     5  C   -0.212541
     6  H    0.124124
     7  H    0.103318
     8  C    0.198277
     9  H    0.093763
    10  C   -0.218060
    11  H    0.126320
    12  H    0.107972
    13  C   -0.355534
    14  H    0.109464
    15  H    0.123871
    16  H    0.106273
    17  O   -0.662557
    18  H    0.341402
 Sum of Mulliken charges =  -0.00000

 Dipole moment (field-independent basis, Debye):
    X=              1.3948    Y=             -0.6036    Z=              0.8167  Tot=              1.7253
 Quadrupole moment (field-independent basis, Debye-Ang):
   XX=            -38.8210   YY=            -40.3317   ZZ=            -40.2347
   XY=              2.4579   XZ=             -0.6998   YZ=              0.6349

 Normal termination of Gaussian 16 at Sun Sep 19 20:00:11 2021.
