 Gaussian 16, Revision A.03,
 Gaussian 16:  EM64L-G16RevA.03 25-Dec-2016

 ---------------------
 #p opt mp2/6-31g(d,p)
 ---------------------

 -------------------------------------------------
 Conformer number 017. Energy MM = -6.229 kcal/mol
 -------------------------------------------------
 Symbolic Z-matrix:
 Charge =  0 Multiplicity = 1

 SCF Done:  E(RHF) =  -422.995408583     A.U. after   13 cycles
 E2 =    -0.1360020554D+01 EUMP2 =    -0.42435542913788D+03
 SCF Done:  E(RHF) =  -423.000255528     A.U. after   13 cycles
 E2 =    -0.1359389901D+01 EUMP2 =    -0.42435964542929D+03
 SCF Done:  E(RHF) =  -423.000207684     A.U. after   12 cycles
 E2 =    -0.1359484019D+01 EUMP2 =    -0.42435969170278D+03
 SCF Done:  E(RHF) =  -423.000476029     A.U. after   12 cycles
 E2 =    -0.1359678695D+01 EUMP2 =    -0.42436015472400D+03
 SCF Done:  E(RHF) =  -423.000674188     A.U. after   12 cycles
 E2 =    -0.1359735739D+01 EUMP2 =    -0.42436040992690D+03
 SCF Done:  E(RHF) =  -423.000673659     A.U. after   11 cycles
 E2 =    -0.1359747225D+01 EUMP2 =    -0.42436042088430D+03
 SCF Done:  E(RHF) =  -423.000688394     A.U. after   10 cycles
 E2 =    -0.1359735148D+01 EUMP2 =    -0.42436042354172D+03
 SCF Done:  E(RHF) =  -423.000696298     A.U. after    9 cycles
 E2 =    -0.1359728736D+01 EUMP2 =    -0.42436042503407D+03
 SCF Done:  E(RHF) =  -423.000709704     A.U. after    9 cycles
 E2 =    -0.1359716712D+01 EUMP2 =    -0.42436042641589D+03
 SCF Done:  E(RHF) =  -423.000729492     A.U. after    9 cycles
 E2 =    -0.1359700196D+01 EUMP2 =    -0.42436042968877D+03
 SCF Done:  E(RHF) =  -423.000743671     A.U. after    8 cycles
 E2 =    -0.1359689781D+01 EUMP2 =    -0.42436043345223D+03
 SCF Done:  E(RHF) =  -423.000733500     A.U. after    9 cycles
 E2 =    -0.1359701194D+01 EUMP2 =    -0.42436043469362D+03
 SCF Done:  E(RHF) =  -423.000714869     A.U. after    9 cycles
 E2 =    -0.1359720271D+01 EUMP2 =    -0.42436043514006D+03
 Optimization completed.
    -- Stationary point found.

                         Standard orientation:
 ---------------------------------------------------------------------
 Center     Atomic      Atomic             Coordinates (Angstroms)
 Number     Number       Type             X           Y           Z
 ---------------------------------------------------------------------
      1          6           0        0.844224    2.548263   -0.377771
      2          1           0       -0.146796    2.733434    0.030013
      3          1           0        0.754404    2.457197   -1.460629
      4          1           0        1.469976    3.413730   -0.164409
      5          6           0        1.443453    1.281224    0.220998
      6          1           0        2.454259    1.134697   -0.163439
      7          1           0        1.524730    1.376353    1.306694
      8          6           0        0.631668    0.037733   -0.094366
      9          1           0        0.519390   -0.079448   -1.175215
     10          6           0        1.180884   -1.250607    0.502157
     11          1           0        0.460378   -2.042246    0.294167
     12          1           0        1.233862   -1.132170    1.586908
     13          6           0        2.543057   -1.646588   -0.060059
     14          1           0        3.320254   -0.937739    0.220279
     15          1           0        2.839079   -2.625569    0.313699
     16          1           0        2.510880   -1.702122   -1.148472
     17          8           0       -0.690836    0.280891    0.465596
     18          6           0       -1.723384   -0.354208   -0.148550
     19          8           0       -1.600830   -1.095176   -1.109561
     20          6           0       -3.022017   -0.005205    0.527609
     21          1           0       -2.977627   -0.292208    1.576204
     22          1           0       -3.181035    1.070397    0.484061
     23          1           0       -3.835731   -0.523693    0.031744
 ---------------------------------------------------------------------

 The electronic state is 1-A.
 Alpha  occ. eigenvalues --  -20.60046 -20.54886 -11.38354 -11.28423 -11.23903
 Alpha  occ. eigenvalues --  -11.22390 -11.22058 -11.21753 -11.21373  -1.44514
 Alpha  occ. eigenvalues --   -1.34722  -1.09353  -1.02412  -1.01476  -0.92622
 Alpha  occ. eigenvalues --   -0.84620  -0.80977  -0.76325  -0.68768  -0.66183
 Alpha  occ. eigenvalues --   -0.64877  -0.61765  -0.60375  -0.60012  -0.57431
 Alpha  occ. eigenvalues --   -0.56747  -0.55394  -0.52914  -0.52422  -0.50523
 Alpha  occ. eigenvalues --   -0.49741  -0.48527  -0.47969  -0.46347  -0.44101
 Alpha  occ. eigenvalues --   -0.43179
 Alpha virt. eigenvalues --    0.18562   0.23207   0.24031   0.26037   0.27198
 Alpha virt. eigenvalues --    0.28062   0.30565   0.30949   0.31135   0.32004
 Alpha virt. eigenvalues --    0.32863   0.33382   0.34465   0.34571   0.37030

 Mulliken charges:
               1
     1  C   -0.337970
     2  H    0.128817
     3  H    0.110955
     4  H    0.114251
     5  C   -0.221022
     6  H    0.119144
     7  H    0.119862
     8  C    0.196841
     9  H    0.150992
    10  C   -0.227220
    11  H    0.141630
    12  H    0.115232
    13  C   -0.350536
    14  H    0.113386
    15  H    0.121973
    16  H    0.119062
    17  O   -0.663373
    18  C    0.772999
    19  O   -0.588696
    20  C   -0.404040
    21  H    0.155189
    22  H    0.154549
    23  H    0.157976
 Sum of Mulliken charges =  -0.00000

 Dipole moment (field-independent basis, Debye):
    X=              0.4351    Y=              1.1769    Z=              1.5673  Tot=              2.0077
 Quadrupole moment (field-independent basis, Debye-Ang):
   XX=            -51.6649   YY=            -58.5584   ZZ=            -59.3847
   XY=             -2.5102   XZ=             -3.9810   YZ=             -3.3492

 Normal termination of Gaussian 16 at Sun Sep 19 20:31:45 2021.
