 Gaussian 16, Revision A.03,
 Gaussian 16:  EM64L-G16RevA.03 25-Dec-2016

 ---------------------
 #p opt mp2/6-31g(d,p)
 ---------------------

 ------------------------------------------------
 Conformer number 012. Energy MM = 6.314 kcal/mol
 ------------------------------------------------
 Symbolic Z-matrix:
 Charge =  0 Multiplicity = 1

 SCF Done:  E(RHF) =  -422.978058777     A.U. after   13 cycles
 E2 =    -0.1359705788D+01 EUMP2 =    -0.42433776456502D+03
 SCF Done:  E(RHF) =  -422.984514600     A.U. after   14 cycles
 E2 =    -0.1359166629D+01 EUMP2 =    -0.42434368122977D+03
 SCF Done:  E(RHF) =  -422.990955258     A.U. after   14 cycles
 E2 =    -0.1359145495D+01 EUMP2 =    -0.42435010075277D+03
 SCF Done:  E(RHF) =  -422.998583653     A.U. after   15 cycles
 E2 =    -0.1359262191D+01 EUMP2 =    -0.42435784584468D+03
 SCF Done:  E(RHF) =  -422.999370805     A.U. after   12 cycles
 E2 =    -0.1360209416D+01 EUMP2 =    -0.42435958022089D+03
 SCF Done:  E(RHF) =  -423.000034762     A.U. after   12 cycles
 E2 =    -0.1360100968D+01 EUMP2 =    -0.42436013572930D+03
 SCF Done:  E(RHF) =  -423.000493447     A.U. after   11 cycles
 E2 =    -0.1359849496D+01 EUMP2 =    -0.42436034294321D+03
 SCF Done:  E(RHF) =  -423.000549168     A.U. after   11 cycles
 E2 =    -0.1359819266D+01 EUMP2 =    -0.42436036843361D+03
 SCF Done:  E(RHF) =  -423.000630484     A.U. after   10 cycles
 E2 =    -0.1359749052D+01 EUMP2 =    -0.42436037953625D+03
 SCF Done:  E(RHF) =  -423.000670186     A.U. after   10 cycles
 E2 =    -0.1359715506D+01 EUMP2 =    -0.42436038569139D+03
 SCF Done:  E(RHF) =  -423.000702509     A.U. after   10 cycles
 E2 =    -0.1359690863D+01 EUMP2 =    -0.42436039337128D+03
 SCF Done:  E(RHF) =  -423.000718319     A.U. after    9 cycles
 E2 =    -0.1359684195D+01 EUMP2 =    -0.42436040251353D+03
 SCF Done:  E(RHF) =  -423.000717503     A.U. after   10 cycles
 E2 =    -0.1359702286D+01 EUMP2 =    -0.42436041978907D+03
 SCF Done:  E(RHF) =  -423.000703468     A.U. after   11 cycles
 E2 =    -0.1359728861D+01 EUMP2 =    -0.42436043232961D+03
 SCF Done:  E(RHF) =  -423.000698720     A.U. after    9 cycles
 E2 =    -0.1359735667D+01 EUMP2 =    -0.42436043438634D+03
 SCF Done:  E(RHF) =  -423.000710247     A.U. after    8 cycles
 E2 =    -0.1359724831D+01 EUMP2 =    -0.42436043507762D+03
 SCF Done:  E(RHF) =  -423.000715653     A.U. after    8 cycles
 E2 =    -0.1359719495D+01 EUMP2 =    -0.42436043514759D+03
 Optimization completed.
    -- Stationary point found.

                         Standard orientation:
 ---------------------------------------------------------------------
 Center     Atomic      Atomic             Coordinates (Angstroms)
 Number     Number       Type             X           Y           Z
 ---------------------------------------------------------------------
      1          6           0        2.542274   -1.647475    0.060401
      2          1           0        2.508840   -1.705209    1.148649
      3          1           0        3.319770   -0.938041   -0.217615
      4          1           0        2.838770   -2.625667   -0.315041
      5          6           0        1.180676   -1.250556   -0.502510
      6          1           0        1.234370   -1.131800   -1.587191
      7          1           0        0.459771   -2.041996   -0.295199
      8          6           0        0.631704    0.037816    0.094140
      9          1           0        0.519540   -0.079326    1.174999
     10          6           0        1.443512    1.281246   -0.221414
     11          1           0        1.524015    1.376644   -1.307132
     12          1           0        2.454566    1.134437    0.162249
     13          6           0        0.845011    2.548302    0.378084
     14          1           0        0.756452    2.457237    1.461038
     15          1           0        1.470526    3.413761    0.163994
     16          1           0       -0.146464    2.733489   -0.028572
     17          8           0       -0.690919    0.281240   -0.465574
     18          6           0       -1.723343   -0.353996    0.148605
     19          8           0       -1.600599   -1.095063    1.109519
     20          6           0       -3.022062   -0.005001   -0.527389
     21          1           0       -3.181032    1.070607   -0.484003
     22          1           0       -2.977912   -0.292182   -1.575943
     23          1           0       -3.835695   -0.523392   -0.031291
 ---------------------------------------------------------------------

 The electronic state is 1-A.
 Alpha  occ. eigenvalues --  -20.60046 -20.54886 -11.38353 -11.28423 -11.23903
 Alpha  occ. eigenvalues --  -11.22390 -11.22058 -11.21753 -11.21373  -1.44513
 Alpha  occ. eigenvalues --   -1.34721  -1.09353  -1.02413  -1.01476  -0.92622
 Alpha  occ. eigenvalues --   -0.84619  -0.80976  -0.76325  -0.68768  -0.66182
 Alpha  occ. eigenvalues --   -0.64878  -0.61765  -0.60375  -0.60012  -0.57431
 Alpha  occ. eigenvalues --   -0.56746  -0.55394  -0.52914  -0.52423  -0.50522
 Alpha  occ. eigenvalues --   -0.49740  -0.48526  -0.47970  -0.46347  -0.44101
 Alpha  occ. eigenvalues --   -0.43179
 Alpha virt. eigenvalues --    0.18562   0.23208   0.24032   0.26036   0.27199
 Alpha virt. eigenvalues --    0.28056   0.30567   0.30949   0.31133   0.32000
 Alpha virt. eigenvalues --    0.32869   0.33383   0.34460   0.34578   0.37035

 Mulliken charges:
               1
     1  C   -0.350516
     2  H    0.119107
     3  H    0.113358
     4  H    0.121967
     5  C   -0.227230
     6  H    0.115214
     7  H    0.141627
     8  C    0.196851
     9  H    0.150992
    10  C   -0.220996
    11  H    0.119879
    12  H    0.119120
    13  C   -0.337976
    14  H    0.110960
    15  H    0.114255
    16  H    0.128812
    17  O   -0.663380
    18  C    0.772999
    19  O   -0.588711
    20  C   -0.404045
    21  H    0.154550
    22  H    0.155192
    23  H    0.157972
 Sum of Mulliken charges =  -0.00000

 Dipole moment (field-independent basis, Debye):
    X=              0.4349    Y=              1.1766    Z=             -1.5673  Tot=              2.0075
 Quadrupole moment (field-independent basis, Debye-Ang):
   XX=            -51.6637   YY=            -58.5580   ZZ=            -59.3847
   XY=             -2.5098   XZ=              3.9795   YZ=              3.3492

 Normal termination of Gaussian 16 at Sun Sep 19 20:39:03 2021.
