 Gaussian 16, Revision A.03,
 Gaussian 16:  EM64L-G16RevA.03 25-Dec-2016

 ---------------------
 #p opt mp2/6-31g(d,p)
 ---------------------

 ------------------------------------------------
 Conformer number 022. Energy MM = 0.626 kcal/mol
 ------------------------------------------------
 Symbolic Z-matrix:
 Charge =  0 Multiplicity = 1

 SCF Done:  E(RHF) =  -422.985883562     A.U. after   13 cycles
 E2 =    -0.1361391868D+01 EUMP2 =    -0.42434727543039D+03
 SCF Done:  E(RHF) =  -422.992582431     A.U. after   13 cycles
 E2 =    -0.1360471096D+01 EUMP2 =    -0.42435305352663D+03
 SCF Done:  E(RHF) =  -422.996187732     A.U. after   12 cycles
 E2 =    -0.1360473032D+01 EUMP2 =    -0.42435666076443D+03
 SCF Done:  E(RHF) =  -422.998364484     A.U. after   13 cycles
 E2 =    -0.1360595196D+01 EUMP2 =    -0.42435895967961D+03
 SCF Done:  E(RHF) =  -422.998800958     A.U. after   12 cycles
 E2 =    -0.1360708734D+01 EUMP2 =    -0.42435950969194D+03
 SCF Done:  E(RHF) =  -422.999167589     A.U. after   11 cycles
 E2 =    -0.1360488097D+01 EUMP2 =    -0.42435965568581D+03
 SCF Done:  E(RHF) =  -422.999214109     A.U. after   10 cycles
 E2 =    -0.1360456280D+01 EUMP2 =    -0.42435967038894D+03
 SCF Done:  E(RHF) =  -422.999218256     A.U. after    9 cycles
 E2 =    -0.1360454287D+01 EUMP2 =    -0.42435967254354D+03
 SCF Done:  E(RHF) =  -422.999218692     A.U. after    8 cycles
 E2 =    -0.1360454736D+01 EUMP2 =    -0.42435967342788D+03
 SCF Done:  E(RHF) =  -422.999219397     A.U. after    8 cycles
 E2 =    -0.1360455589D+01 EUMP2 =    -0.42435967498649D+03
 SCF Done:  E(RHF) =  -422.999218569     A.U. after    9 cycles
 E2 =    -0.1360458481D+01 EUMP2 =    -0.42435967705015D+03
 SCF Done:  E(RHF) =  -422.999218455     A.U. after    9 cycles
 E2 =    -0.1360460758D+01 EUMP2 =    -0.42435967921294D+03
 SCF Done:  E(RHF) =  -422.999223994     A.U. after    9 cycles
 E2 =    -0.1360457289D+01 EUMP2 =    -0.42435968128287D+03
 SCF Done:  E(RHF) =  -422.999235940     A.U. after    9 cycles
 E2 =    -0.1360446317D+01 EUMP2 =    -0.42435968225687D+03
 SCF Done:  E(RHF) =  -422.999238068     A.U. after    8 cycles
 E2 =    -0.1360444267D+01 EUMP2 =    -0.42435968233560D+03
 Optimization completed.
    -- Stationary point found.

                         Standard orientation:
 ---------------------------------------------------------------------
 Center     Atomic      Atomic             Coordinates (Angstroms)
 Number     Number       Type             X           Y           Z
 ---------------------------------------------------------------------
      1          6           0        1.843980    1.928774    0.347956
      2          1           0        2.462394    1.375910    1.053810
      3          1           0        0.976009    2.310336    0.882196
      4          1           0        2.426738    2.778313   -0.005663
      5          6           0        1.407831    1.054976   -0.822665
      6          1           0        0.884908    1.664051   -1.562407
      7          1           0        2.279728    0.633918   -1.327493
      8          6           0        0.480555   -0.088056   -0.437654
      9          1           0        0.213704   -0.664404   -1.326016
     10          6           0        1.011687   -1.035936    0.628489
     11          1           0        0.243425   -1.788786    0.806685
     12          1           0        1.144576   -0.483353    1.559882
     13          6           0        2.313579   -1.719135    0.221831
     14          1           0        3.133671   -1.007368    0.137771
     15          1           0        2.599062   -2.468101    0.958899
     16          1           0        2.203914   -2.222996   -0.738899
     17          8           0       -0.734540    0.543975    0.060888
     18          6           0       -1.879555   -0.172862   -0.083155
     19          8           0       -1.938982   -1.279453   -0.592838
     20          6           0       -3.046655    0.596911    0.474587
     21          1           0       -2.888406    0.781298    1.535353
     22          1           0       -3.123180    1.561614   -0.022455
     23          1           0       -3.956905    0.025363    0.327601
 ---------------------------------------------------------------------

 The electronic state is 1-A.
 Alpha  occ. eigenvalues --  -20.60016 -20.54863 -11.38345 -11.28431 -11.23885
 Alpha  occ. eigenvalues --  -11.22407 -11.21937 -11.21773 -11.21366  -1.44476
 Alpha  occ. eigenvalues --   -1.34686  -1.09445  -1.01973  -1.01501  -0.92776
 Alpha  occ. eigenvalues --   -0.85776  -0.80458  -0.74945  -0.68977  -0.66300
 Alpha  occ. eigenvalues --   -0.65231  -0.63142  -0.60080  -0.58536  -0.57054
 Alpha  occ. eigenvalues --   -0.56579  -0.56288  -0.53620  -0.52011  -0.50314
 Alpha  occ. eigenvalues --   -0.50252  -0.48655  -0.47587  -0.46041  -0.44107
 Alpha  occ. eigenvalues --   -0.43076
 Alpha virt. eigenvalues --    0.18591   0.22100   0.25008   0.26522   0.27388
 Alpha virt. eigenvalues --    0.28310   0.30178   0.30902   0.31322   0.32684
 Alpha virt. eigenvalues --    0.33190   0.33658   0.34912   0.35972   0.36829

 Mulliken charges:
               1
     1  C   -0.343840
     2  H    0.111273
     3  H    0.132801
     4  H    0.114975
     5  C   -0.221969
     6  H    0.124827
     7  H    0.117605
     8  C    0.192924
     9  H    0.154666
    10  C   -0.234550
    11  H    0.144682
    12  H    0.119300
    13  C   -0.350191
    14  H    0.113400
    15  H    0.121948
    16  H    0.117951
    17  O   -0.662781
    18  C    0.772259
    19  O   -0.589070
    20  C   -0.403697
    21  H    0.154937
    22  H    0.154670
    23  H    0.157880
 Sum of Mulliken charges =  -0.00000

 Dipole moment (field-independent basis, Debye):
    X=              0.7020    Y=              1.7187    Z=              0.7780  Tot=              2.0130
 Quadrupole moment (field-independent basis, Debye-Ang):
   XX=            -53.6355   YY=            -60.2955   ZZ=            -56.2796
   XY=             -5.6653   XZ=             -3.2470   YZ=             -2.2951

 Normal termination of Gaussian 16 at Sun Sep 19 20:50:57 2021.
