 Gaussian 16, Revision A.03,
 Gaussian 16:  EM64L-G16RevA.03 25-Dec-2016

 ---------------------
 #p opt mp2/6-31g(d,p)
 ---------------------

 -------------------------------------------------
 Conformer number 003. Energy MM = -6.696 kcal/mol
 -------------------------------------------------
 Symbolic Z-matrix:
 Charge =  0 Multiplicity = 1

 SCF Done:  E(RHF) =  -422.995842691     A.U. after   13 cycles
 E2 =    -0.1360723340D+01 EUMP2 =    -0.42435656603089D+03
 SCF Done:  E(RHF) =  -422.998630672     A.U. after   12 cycles
 E2 =    -0.1360417736D+01 EUMP2 =    -0.42435904840828D+03
 SCF Done:  E(RHF) =  -422.998249999     A.U. after   12 cycles
 E2 =    -0.1360382265D+01 EUMP2 =    -0.42435863226435D+03
 SCF Done:  E(RHF) =  -422.999075056     A.U. after   11 cycles
 E2 =    -0.1360438751D+01 EUMP2 =    -0.42435951380657D+03
 SCF Done:  E(RHF) =  -422.999054394     A.U. after   11 cycles
 E2 =    -0.1360520191D+01 EUMP2 =    -0.42435957458501D+03
 SCF Done:  E(RHF) =  -422.999052709     A.U. after    9 cycles
 E2 =    -0.1360534377D+01 EUMP2 =    -0.42435958708597D+03
 SCF Done:  E(RHF) =  -422.999065744     A.U. after    9 cycles
 E2 =    -0.1360534808D+01 EUMP2 =    -0.42435960055257D+03
 SCF Done:  E(RHF) =  -422.999083901     A.U. after    9 cycles
 E2 =    -0.1360523967D+01 EUMP2 =    -0.42435960786774D+03
 SCF Done:  E(RHF) =  -422.999113110     A.U. after    9 cycles
 E2 =    -0.1360504625D+01 EUMP2 =    -0.42435961773536D+03
 SCF Done:  E(RHF) =  -422.999192984     A.U. after   10 cycles
 E2 =    -0.1360456142D+01 EUMP2 =    -0.42435964912629D+03
 SCF Done:  E(RHF) =  -422.999248773     A.U. after   10 cycles
 E2 =    -0.1360422876D+01 EUMP2 =    -0.42435967164899D+03
 SCF Done:  E(RHF) =  -422.999251928     A.U. after    9 cycles
 E2 =    -0.1360429820D+01 EUMP2 =    -0.42435968174835D+03
 SCF Done:  E(RHF) =  -422.999240898     A.U. after    9 cycles
 E2 =    -0.1360441366D+01 EUMP2 =    -0.42435968226398D+03
 SCF Done:  E(RHF) =  -422.999237227     A.U. after    8 cycles
 E2 =    -0.1360445117D+01 EUMP2 =    -0.42435968234379D+03
 Optimization completed.
    -- Stationary point found.

                         Standard orientation:
 ---------------------------------------------------------------------
 Center     Atomic      Atomic             Coordinates (Angstroms)
 Number     Number       Type             X           Y           Z
 ---------------------------------------------------------------------
      1          6           0        2.313714   -1.719042   -0.221775
      2          1           0        2.203994   -2.222802    0.739006
      3          1           0        3.133761   -1.007223   -0.137723
      4          1           0        2.599302   -2.468092   -0.958719
      5          6           0        1.011813   -1.035927   -0.628567
      6          1           0        1.144761   -0.483276   -1.559906
      7          1           0        0.243601   -1.788799   -0.806799
      8          6           0        0.480606   -0.088124    0.437651
      9          1           0        0.213870   -0.664570    1.325990
     10          6           0        1.407777    1.055013    0.822669
     11          1           0        2.279731    0.634058    1.327476
     12          1           0        0.884761    1.663956    1.562457
     13          6           0        1.843754    1.928909   -0.347960
     14          1           0        0.975693    2.310223   -0.882233
     15          1           0        2.426283    2.778623    0.005614
     16          1           0        2.462327    1.376188   -1.053791
     17          8           0       -0.734560    0.543895   -0.060773
     18          6           0       -1.879564   -0.172964    0.083127
     19          8           0       -1.939055   -1.279638    0.592656
     20          6           0       -3.046591    0.596978   -0.474521
     21          1           0       -3.122645    1.561887    0.022205
     22          1           0       -2.888627    0.780977   -1.535392
     23          1           0       -3.956954    0.025745   -0.326999
 ---------------------------------------------------------------------

 The electronic state is 1-A.
 Alpha  occ. eigenvalues --  -20.60016 -20.54863 -11.38345 -11.28432 -11.23885
 Alpha  occ. eigenvalues --  -11.22408 -11.21938 -11.21773 -11.21367  -1.44476
 Alpha  occ. eigenvalues --   -1.34685  -1.09445  -1.01973  -1.01501  -0.92776
 Alpha  occ. eigenvalues --   -0.85776  -0.80459  -0.74946  -0.68976  -0.66300
 Alpha  occ. eigenvalues --   -0.65231  -0.63142  -0.60080  -0.58536  -0.57054
 Alpha  occ. eigenvalues --   -0.56578  -0.56288  -0.53619  -0.52011  -0.50315
 Alpha  occ. eigenvalues --   -0.50252  -0.48655  -0.47586  -0.46042  -0.44107
 Alpha  occ. eigenvalues --   -0.43076
 Alpha virt. eigenvalues --    0.18591   0.22100   0.25008   0.26521   0.27388
 Alpha virt. eigenvalues --    0.28310   0.30177   0.30902   0.31323   0.32685
 Alpha virt. eigenvalues --    0.33190   0.33658   0.34912   0.35972   0.36829

 Mulliken charges:
               1
     1  C   -0.350197
     2  H    0.117949
     3  H    0.113404
     4  H    0.121951
     5  C   -0.234550
     6  H    0.119303
     7  H    0.144688
     8  C    0.192927
     9  H    0.154657
    10  C   -0.221967
    11  H    0.117606
    12  H    0.124830
    13  C   -0.343845
    14  H    0.132805
    15  H    0.114979
    16  H    0.111272
    17  O   -0.662781
    18  C    0.772267
    19  O   -0.589085
    20  C   -0.403698
    21  H    0.154664
    22  H    0.154944
    23  H    0.157876
 Sum of Mulliken charges =  -0.00000

 Dipole moment (field-independent basis, Debye):
    X=              0.7026    Y=              1.7190    Z=             -0.7779  Tot=              2.0134
 Quadrupole moment (field-independent basis, Debye-Ang):
   XX=            -53.6369   YY=            -60.2963   ZZ=            -56.2789
   XY=             -5.6661   XZ=              3.2464   YZ=              2.2942

 Normal termination of Gaussian 16 at Sun Sep 19 20:30:25 2021.
