 Gaussian 16, Revision A.03,
 Gaussian 16:  EM64L-G16RevA.03 25-Dec-2016

 ---------------------
 #p opt mp2/6-31g(d,p)
 ---------------------

 -------------------------------------------------
 Conformer number 010. Energy MM = -6.992 kcal/mol
 -------------------------------------------------
 Symbolic Z-matrix:
 Charge =  0 Multiplicity = 1

 SCF Done:  E(RHF) =  -422.996290634     A.U. after   13 cycles
 E2 =    -0.1361065623D+01 EUMP2 =    -0.42435735625671D+03
 SCF Done:  E(RHF) =  -422.998831653     A.U. after   11 cycles
 E2 =    -0.1360419637D+01 EUMP2 =    -0.42435925129058D+03
 SCF Done:  E(RHF) =  -422.998248431     A.U. after   12 cycles
 E2 =    -0.1360474846D+01 EUMP2 =    -0.42435872327643D+03
 SCF Done:  E(RHF) =  -422.999257135     A.U. after   11 cycles
 E2 =    -0.1360410650D+01 EUMP2 =    -0.42435966778416D+03
 SCF Done:  E(RHF) =  -422.999148251     A.U. after   10 cycles
 E2 =    -0.1360548879D+01 EUMP2 =    -0.42435969713067D+03
 SCF Done:  E(RHF) =  -422.999157639     A.U. after    9 cycles
 E2 =    -0.1360542805D+01 EUMP2 =    -0.42435970044416D+03
 SCF Done:  E(RHF) =  -422.999161482     A.U. after    9 cycles
 E2 =    -0.1360541240D+01 EUMP2 =    -0.42435970272281D+03
 SCF Done:  E(RHF) =  -422.999164892     A.U. after    8 cycles
 E2 =    -0.1360539681D+01 EUMP2 =    -0.42435970457307D+03
 SCF Done:  E(RHF) =  -422.999173026     A.U. after    8 cycles
 E2 =    -0.1360533159D+01 EUMP2 =    -0.42435970618465D+03
 SCF Done:  E(RHF) =  -422.999191422     A.U. after    9 cycles
 E2 =    -0.1360517573D+01 EUMP2 =    -0.42435970899491D+03
 SCF Done:  E(RHF) =  -422.999230239     A.U. after   10 cycles
 E2 =    -0.1360484285D+01 EUMP2 =    -0.42435971452352D+03
 SCF Done:  E(RHF) =  -422.999227800     A.U. after    8 cycles
 E2 =    -0.1360489261D+01 EUMP2 =    -0.42435971706114D+03
 SCF Done:  E(RHF) =  -422.999214530     A.U. after    8 cycles
 E2 =    -0.1360502959D+01 EUMP2 =    -0.42435971748849D+03
 Optimization completed.
    -- Stationary point found.

                         Standard orientation:
 ---------------------------------------------------------------------
 Center     Atomic      Atomic             Coordinates (Angstroms)
 Number     Number       Type             X           Y           Z
 ---------------------------------------------------------------------
      1          6           0        2.910153   -1.122654    0.116499
      2          1           0        2.809715   -1.590642    1.096198
      3          1           0        3.377277   -0.148952    0.255963
      4          1           0        3.588506   -1.733560   -0.476993
      5          6           0        1.554907   -1.002409   -0.572643
      6          1           0        1.657183   -0.479907   -1.524819
      7          1           0        1.165341   -1.995540   -0.802924
      8          6           0        0.519107   -0.289439    0.280773
      9          1           0        0.311917   -0.870488    1.181853
     10          6           0        0.869228    1.138125    0.683699
     11          1           0        1.728192    1.104153    1.357540
     12          1           0        0.035132    1.522751    1.271581
     13          6           0        1.156318    2.061711   -0.494413
     14          1           0        0.329166    2.046585   -1.202193
     15          1           0        1.291852    3.086918   -0.152676
     16          1           0        2.060941    1.769275   -1.026270
     17          8           0       -0.694431   -0.275765   -0.526437
     18          6           0       -1.865533   -0.239881    0.162243
     19          8           0       -1.947829   -0.221932    1.379053
     20          6           0       -3.028499   -0.224401   -0.793295
     21          1           0       -2.979198    0.668952   -1.412938
     22          1           0       -2.976213   -1.088572   -1.451991
     23          1           0       -3.955816   -0.235715   -0.230434
 ---------------------------------------------------------------------

 The electronic state is 1-A.
 Alpha  occ. eigenvalues --  -20.60031 -20.54892 -11.38346 -11.28444 -11.23895
 Alpha  occ. eigenvalues --  -11.22354 -11.22016 -11.21986 -11.21331  -1.44475
 Alpha  occ. eigenvalues --   -1.34701  -1.09472  -1.02003  -1.01531  -0.92884
 Alpha  occ. eigenvalues --   -0.86145  -0.79862  -0.74755  -0.68776  -0.66721
 Alpha  occ. eigenvalues --   -0.65911  -0.63267  -0.60497  -0.58475  -0.57138
 Alpha  occ. eigenvalues --   -0.56844  -0.54596  -0.53806  -0.52116  -0.50968
 Alpha  occ. eigenvalues --   -0.50335  -0.48524  -0.47555  -0.45986  -0.44236
 Alpha  occ. eigenvalues --   -0.43160
 Alpha virt. eigenvalues --    0.18488   0.21849   0.24617   0.26621   0.27871
 Alpha virt. eigenvalues --    0.28303   0.29610   0.30715   0.31116   0.32716
 Alpha virt. eigenvalues --    0.33100   0.33893   0.34953   0.36024   0.36699

 Mulliken charges:
               1
     1  C   -0.349523
     2  H    0.115506
     3  H    0.117317
     4  H    0.121522
     5  C   -0.220991
     6  H    0.125250
     7  H    0.124643
     8  C    0.194448
     9  H    0.154846
    10  C   -0.238435
    11  H    0.116536
    12  H    0.145253
    13  C   -0.342393
    14  H    0.124443
    15  H    0.116776
    16  H    0.110171
    17  O   -0.663287
    18  C    0.771700
    19  O   -0.587841
    20  C   -0.403480
    21  H    0.154507
    22  H    0.155142
    23  H    0.157890
 Sum of Mulliken charges =  -0.00000

 Dipole moment (field-independent basis, Debye):
    X=              0.7743    Y=             -0.0260    Z=             -1.8917  Tot=              2.0442
 Quadrupole moment (field-independent basis, Debye-Ang):
   XX=            -53.4713   YY=            -55.3916   ZZ=            -61.3074
   XY=             -0.4628   XZ=              6.4467   YZ=              0.5948

 Normal termination of Gaussian 16 at Sun Sep 19 20:31:58 2021.
