 Gaussian 16, Revision A.03,
 Gaussian 16:  EM64L-G16RevA.03 25-Dec-2016

 ---------------------
 #p opt mp2/6-31g(d,p)
 ---------------------

 -------------------------------------------------
 Conformer number 007. Energy MM = -3.003 kcal/mol
 -------------------------------------------------
 Symbolic Z-matrix:
 Charge =  0 Multiplicity = 1

 SCF Done:  E(RHF) =  -422.990356915     A.U. after   13 cycles
 E2 =    -0.1360988853D+01 EUMP2 =    -0.42435134576766D+03
 SCF Done:  E(RHF) =  -422.997896115     A.U. after   13 cycles
 E2 =    -0.1359607607D+01 EUMP2 =    -0.42435750372218D+03
 SCF Done:  E(RHF) =  -422.999004560     A.U. after   13 cycles
 E2 =    -0.1359845993D+01 EUMP2 =    -0.42435885055308D+03
 SCF Done:  E(RHF) =  -423.000231909     A.U. after   13 cycles
 E2 =    -0.1359979947D+01 EUMP2 =    -0.42436021185640D+03
 SCF Done:  E(RHF) =  -423.000443385     A.U. after   12 cycles
 E2 =    -0.1359882763D+01 EUMP2 =    -0.42436032614835D+03
 SCF Done:  E(RHF) =  -423.000566300     A.U. after   10 cycles
 E2 =    -0.1359780328D+01 EUMP2 =    -0.42436034662787D+03
 SCF Done:  E(RHF) =  -423.000615663     A.U. after   10 cycles
 E2 =    -0.1359740937D+01 EUMP2 =    -0.42436035660009D+03
 SCF Done:  E(RHF) =  -423.000663868     A.U. after   10 cycles
 E2 =    -0.1359702698D+01 EUMP2 =    -0.42436036656542D+03
 SCF Done:  E(RHF) =  -423.000692419     A.U. after    9 cycles
 E2 =    -0.1359682470D+01 EUMP2 =    -0.42436037488927D+03
 SCF Done:  E(RHF) =  -423.000706594     A.U. after   10 cycles
 E2 =    -0.1359684971D+01 EUMP2 =    -0.42436039156557D+03
 SCF Done:  E(RHF) =  -423.000704809     A.U. after   10 cycles
 E2 =    -0.1359709154D+01 EUMP2 =    -0.42436041396246D+03
 SCF Done:  E(RHF) =  -423.000708069     A.U. after    9 cycles
 E2 =    -0.1359723904D+01 EUMP2 =    -0.42436043197297D+03
 SCF Done:  E(RHF) =  -423.000712898     A.U. after    9 cycles
 E2 =    -0.1359722108D+01 EUMP2 =    -0.42436043500645D+03
 SCF Done:  E(RHF) =  -423.000714440     A.U. after    7 cycles
 E2 =    -0.1359720695D+01 EUMP2 =    -0.42436043513519D+03
 SCF Done:  E(RHF) =  -423.000716009     A.U. after    7 cycles
 E2 =    -0.1359719142D+01 EUMP2 =    -0.42436043515133D+03
 Optimization completed.
    -- Stationary point found.

                         Standard orientation:
 ---------------------------------------------------------------------
 Center     Atomic      Atomic             Coordinates (Angstroms)
 Number     Number       Type             X           Y           Z
 ---------------------------------------------------------------------
      1          6           0        0.844426   -2.548273    0.378035
      2          1           0       -0.147073   -2.733175   -0.028706
      3          1           0        0.755815   -2.457256    1.460990
      4          1           0        1.469723   -3.413888    0.163928
      5          6           0        1.443304   -1.281354   -0.221338
      6          1           0        2.454332   -1.134760    0.162492
      7          1           0        1.523957   -1.376726   -1.307050
      8          6           0        0.631711   -0.037783    0.094159
      9          1           0        0.519433    0.079368    1.175006
     10          6           0        1.181002    1.250507   -0.502371
     11          1           0        0.460340    2.042113   -0.294811
     12          1           0        1.234482    1.131947   -1.587088
     13          6           0        2.542823    1.646872    0.060380
     14          1           0        3.320059    0.937385   -0.218243
     15          1           0        2.839434    2.625193   -0.314635
     16          1           0        2.509713    1.704044    1.148670
     17          8           0       -0.690895   -0.280845   -0.465773
     18          6           0       -1.723357    0.354178    0.148573
     19          8           0       -1.600653    1.095009    1.109668
     20          6           0       -3.022097    0.005289   -0.527469
     21          1           0       -2.977804    0.292366   -1.576047
     22          1           0       -3.181158   -1.070305   -0.483982
     23          1           0       -3.835749    0.523769   -0.031492
 ---------------------------------------------------------------------

 The electronic state is 1-A.
 Alpha  occ. eigenvalues --  -20.60046 -20.54885 -11.38353 -11.28423 -11.23903
 Alpha  occ. eigenvalues --  -11.22390 -11.22058 -11.21753 -11.21373  -1.44513
 Alpha  occ. eigenvalues --   -1.34721  -1.09353  -1.02413  -1.01476  -0.92623
 Alpha  occ. eigenvalues --   -0.84619  -0.80976  -0.76325  -0.68768  -0.66182
 Alpha  occ. eigenvalues --   -0.64878  -0.61765  -0.60376  -0.60013  -0.57431
 Alpha  occ. eigenvalues --   -0.56746  -0.55394  -0.52914  -0.52423  -0.50522
 Alpha  occ. eigenvalues --   -0.49740  -0.48526  -0.47969  -0.46347  -0.44101
 Alpha  occ. eigenvalues --   -0.43179
 Alpha virt. eigenvalues --    0.18563   0.23208   0.24031   0.26036   0.27199
 Alpha virt. eigenvalues --    0.28057   0.30566   0.30949   0.31133   0.32001
 Alpha virt. eigenvalues --    0.32867   0.33383   0.34461   0.34577   0.37034

 Mulliken charges:
               1
     1  C   -0.337982
     2  H    0.128808
     3  H    0.110963
     4  H    0.114257
     5  C   -0.220995
     6  H    0.119126
     7  H    0.119879
     8  C    0.196836
     9  H    0.151006
    10  C   -0.227214
    11  H    0.141615
    12  H    0.115223
    13  C   -0.350521
    14  H    0.113364
    15  H    0.121969
    16  H    0.119094
    17  O   -0.663386
    18  C    0.772994
    19  O   -0.588705
    20  C   -0.404039
    21  H    0.155188
    22  H    0.154548
    23  H    0.157975
 Sum of Mulliken charges =  -0.00000

 Dipole moment (field-independent basis, Debye):
    X=              0.4351    Y=             -1.1767    Z=             -1.5674  Tot=              2.0076
 Quadrupole moment (field-independent basis, Debye-Ang):
   XX=            -51.6637   YY=            -58.5571   ZZ=            -59.3860
   XY=              2.5092   XZ=              3.9800   YZ=             -3.3493

 Normal termination of Gaussian 16 at Sun Sep 19 20:35:03 2021.
