 Gaussian 16, Revision A.03,
 Gaussian 16:  EM64L-G16RevA.03 25-Dec-2016

 ---------------------
 #p opt mp2/6-31g(d,p)
 ---------------------

 -------------------------------------------------
 Conformer number 018. Energy MM = -6.946 kcal/mol
 -------------------------------------------------
 Symbolic Z-matrix:
 Charge =  0 Multiplicity = 1

 SCF Done:  E(RHF) =  -422.996184087     A.U. after   13 cycles
 E2 =    -0.1360937429D+01 EUMP2 =    -0.42435712151655D+03
 SCF Done:  E(RHF) =  -422.999539459     A.U. after   13 cycles
 E2 =    -0.1360257665D+01 EUMP2 =    -0.42435979712401D+03
 SCF Done:  E(RHF) =  -422.999455027     A.U. after   11 cycles
 E2 =    -0.1360360976D+01 EUMP2 =    -0.42435981600339D+03
 SCF Done:  E(RHF) =  -422.999620677     A.U. after   12 cycles
 E2 =    -0.1360431695D+01 EUMP2 =    -0.42436005237217D+03
 SCF Done:  E(RHF) =  -422.999624894     A.U. after   11 cycles
 E2 =    -0.1360535199D+01 EUMP2 =    -0.42436016009355D+03
 SCF Done:  E(RHF) =  -422.999613758     A.U. after    9 cycles
 E2 =    -0.1360557182D+01 EUMP2 =    -0.42436017094023D+03
 SCF Done:  E(RHF) =  -422.999597080     A.U. after    9 cycles
 E2 =    -0.1360581623D+01 EUMP2 =    -0.42436017870324D+03
 SCF Done:  E(RHF) =  -422.999585815     A.U. after   10 cycles
 E2 =    -0.1360598912D+01 EUMP2 =    -0.42436018472701D+03
 SCF Done:  E(RHF) =  -422.999610680     A.U. after   10 cycles
 E2 =    -0.1360587157D+01 EUMP2 =    -0.42436019783746D+03
 SCF Done:  E(RHF) =  -422.999743836     A.U. after   12 cycles
 E2 =    -0.1360472418D+01 EUMP2 =    -0.42436021625336D+03
 E2 =    -0.1360529103D+01 EUMP2 =    -0.42436024505217D+03
 E2 =    -0.1371557333D+01 EUMP2 =    -0.42432076029875D+03
 E2 =    -0.1360428892D+01 EUMP2 =    -0.42436044788741D+03
 E2 =    -0.1360403680D+01 EUMP2 =    -0.42436043065852D+03
 SCF Done:  E(RHF) =  -422.999642754     A.U. after   13 cycles
 E2 =    -0.1360593388D+01 EUMP2 =    -0.42436023614153D+03
 SCF Done:  E(RHF) =  -423.000122928     A.U. after   12 cycles
 E2 =    -0.1360450212D+01 EUMP2 =    -0.42436057314054D+03
 SCF Done:  E(RHF) =  -423.000271639     A.U. after   12 cycles
 E2 =    -0.1360409630D+01 EUMP2 =    -0.42436068126923D+03
 SCF Done:  E(RHF) =  -423.000384573     A.U. after   11 cycles
 E2 =    -0.1360319308D+01 EUMP2 =    -0.42436070388067D+03
 SCF Done:  E(RHF) =  -423.000389669     A.U. after   10 cycles
 E2 =    -0.1360326987D+01 EUMP2 =    -0.42436071665615D+03
 SCF Done:  E(RHF) =  -423.000405744     A.U. after    9 cycles
 E2 =    -0.1360313439D+01 EUMP2 =    -0.42436071918267D+03
 SCF Done:  E(RHF) =  -423.000406493     A.U. after    7 cycles
 E2 =    -0.1360313049D+01 EUMP2 =    -0.42436071954257D+03
 SCF Done:  E(RHF) =  -423.000412386     A.U. after    8 cycles
 E2 =    -0.1360307316D+01 EUMP2 =    -0.42436071970277D+03
 SCF Done:  E(RHF) =  -423.000414176     A.U. after    6 cycles
 E2 =    -0.1360305570D+01 EUMP2 =    -0.42436071974567D+03
 SCF Done:  E(RHF) =  -423.000416785     A.U. after    6 cycles
 E2 =    -0.1360302985D+01 EUMP2 =    -0.42436071977000D+03
 Optimization completed.
    -- Stationary point found.

                         Standard orientation:
 ---------------------------------------------------------------------
 Center     Atomic      Atomic             Coordinates (Angstroms)
 Number     Number       Type             X           Y           Z
 ---------------------------------------------------------------------
      1          6           0        1.326073   -2.152529   -0.746165
      2          1           0        2.261218   -1.782245   -1.163342
      3          1           0        0.535907   -1.970451   -1.472565
      4          1           0        1.426116   -3.229299   -0.616709
      5          6           0        0.995517   -1.483642    0.583477
      6          1           0        0.127191   -1.960834    1.039421
      7          1           0        1.824299   -1.607659    1.285598
      8          6           0        0.697006    0.007124    0.477396
      9          1           0        0.411685    0.382218    1.462703
     10          6           0        1.825077    0.848776   -0.092098
     11          1           0        2.028772    0.529724   -1.115246
     12          1           0        2.724002    0.639705    0.493627
     13          6           0        1.515257    2.340678   -0.065353
     14          1           0        1.326273    2.678645    0.953863
     15          1           0        2.346678    2.920739   -0.463310
     16          1           0        0.632119    2.555896   -0.663243
     17          8           0       -0.437191    0.213274   -0.414870
     18          6           0       -1.668106    0.071779    0.144468
     19          8           0       -1.863034   -0.213874    1.313938
     20          6           0       -2.736851    0.319282   -0.886130
     21          1           0       -2.622496    1.318165   -1.302105
     22          1           0       -2.631193   -0.393957   -1.701208
     23          1           0       -3.712618    0.215352   -0.423611
 ---------------------------------------------------------------------

 The electronic state is 1-A.
 Alpha  occ. eigenvalues --  -20.60109 -20.54964 -11.38412 -11.28463 -11.23967
 Alpha  occ. eigenvalues --  -11.22406 -11.22076 -11.21424 -11.21307  -1.44547
 Alpha  occ. eigenvalues --   -1.34780  -1.09276  -1.02324  -1.01467  -0.92695
 Alpha  occ. eigenvalues --   -0.84870  -0.81441  -0.74780  -0.68818  -0.66876
 Alpha  occ. eigenvalues --   -0.65066  -0.61562  -0.60539  -0.59857  -0.58203
 Alpha  occ. eigenvalues --   -0.56184  -0.54213  -0.54063  -0.52568  -0.50813
 Alpha  occ. eigenvalues --   -0.49045  -0.48418  -0.48115  -0.45996  -0.44255
 Alpha  occ. eigenvalues --   -0.43231
 Alpha virt. eigenvalues --    0.18438   0.22471   0.24881   0.25785   0.27335
 Alpha virt. eigenvalues --    0.28469   0.29943   0.30241   0.31552   0.32365
 Alpha virt. eigenvalues --    0.33383   0.33780   0.34268   0.35533   0.36386

 Mulliken charges:
               1
     1  C   -0.341676
     2  H    0.111500
     3  H    0.123427
     4  H    0.116420
     5  C   -0.233486
     6  H    0.144711
     7  H    0.113346
     8  C    0.184811
     9  H    0.154997
    10  C   -0.219803
    11  H    0.126126
    12  H    0.114402
    13  C   -0.339244
    14  H    0.111345
    15  H    0.115040
    16  H    0.127230
    17  O   -0.659409
    18  C    0.773157
    19  O   -0.586923
    20  C   -0.403703
    21  H    0.154732
    22  H    0.154649
    23  H    0.158350
 Sum of Mulliken charges =  -0.00000

 Dipole moment (field-independent basis, Debye):
    X=              0.8741    Y=              0.3913    Z=             -1.7881  Tot=              2.0284
 Quadrupole moment (field-independent basis, Debye-Ang):
   XX=            -54.2868   YY=            -56.0503   ZZ=            -60.2400
   XY=             -1.2996   XZ=              6.8915   YZ=              0.6263

 Normal termination of Gaussian 16 at Sun Sep 19 21:19:46 2021.
