 Gaussian 16, Revision A.03,
 Gaussian 16:  EM64L-G16RevA.03 25-Dec-2016

 ---------------------
 #p opt mp2/6-31g(d,p)
 ---------------------

 -------------------------------------------------
 Conformer number 021. Energy MM = -3.295 kcal/mol
 -------------------------------------------------
 Symbolic Z-matrix:
 Charge =  0 Multiplicity = 1

 SCF Done:  E(RHF) =  -422.990820164     A.U. after   13 cycles
 E2 =    -0.1360532839D+01 EUMP2 =    -0.42435135300335D+03
 SCF Done:  E(RHF) =  -422.993726385     A.U. after   12 cycles
 E2 =    -0.1360677582D+01 EUMP2 =    -0.42435440396679D+03
 SCF Done:  E(RHF) =  -422.993490918     A.U. after   13 cycles
 E2 =    -0.1360805745D+01 EUMP2 =    -0.42435429666337D+03
 SCF Done:  E(RHF) =  -422.994982188     A.U. after   12 cycles
 E2 =    -0.1360683032D+01 EUMP2 =    -0.42435566521910D+03
 SCF Done:  E(RHF) =  -422.994792024     A.U. after   12 cycles
 E2 =    -0.1361046199D+01 EUMP2 =    -0.42435583822285D+03
 SCF Done:  E(RHF) =  -422.994846511     A.U. after   12 cycles
 E2 =    -0.1361089063D+01 EUMP2 =    -0.42435593557398D+03
 SCF Done:  E(RHF) =  -422.994928689     A.U. after   12 cycles
 E2 =    -0.1361026476D+01 EUMP2 =    -0.42435595516505D+03
 SCF Done:  E(RHF) =  -422.994920793     A.U. after   11 cycles
 E2 =    -0.1361069130D+01 EUMP2 =    -0.42435598992294D+03
 SCF Done:  E(RHF) =  -422.994909421     A.U. after   10 cycles
 E2 =    -0.1361086033D+01 EUMP2 =    -0.42435599545376D+03
 SCF Done:  E(RHF) =  -422.994914913     A.U. after    9 cycles
 E2 =    -0.1361082266D+01 EUMP2 =    -0.42435599717892D+03
 E2 =    -0.1361081494D+01 EUMP2 =    -0.42435599771682D+03
 E2 =    -0.1361081998D+01 EUMP2 =    -0.42435599875513D+03
 E2 =    -0.1361084415D+01 EUMP2 =    -0.42435600115051D+03
 E2 =    -0.1361086393D+01 EUMP2 =    -0.42435601060060D+03
 E2 =    -0.1361074603D+01 EUMP2 =    -0.42435602004124D+03
 E2 =    -0.1361089297D+01 EUMP2 =    -0.42435601590004D+03
 E2 =    -0.1361111236D+01 EUMP2 =    -0.42435600695111D+03
 E2 =    -0.1361091333D+01 EUMP2 =    -0.42435602878024D+03
 E2 =    -0.1361073970D+01 EUMP2 =    -0.42435604335889D+03
 E2 =    -0.1361026712D+01 EUMP2 =    -0.42435605750217D+03
 E2 =    -0.1361075306D+01 EUMP2 =    -0.42435604450480D+03
 E2 =    -0.1361399694D+01 EUMP2 =    -0.42435559947833D+03
 SCF Done:  E(RHF) =  -422.993954262     A.U. after   12 cycles
 E2 =    -0.1361279734D+01 EUMP2 =    -0.42435523399671D+03
 SCF Done:  E(RHF) =  -422.993667231     A.U. after   12 cycles
 E2 =    -0.1361021183D+01 EUMP2 =    -0.42435468841469D+03
 SCF Done:  E(RHF) =  -422.995088841     A.U. after    7 cycles
 E2 =    -0.1360999194D+01 EUMP2 =    -0.42435608803535D+03
 SCF Done:  E(RHF) =  -422.995064244     A.U. after   12 cycles
 E2 =    -0.1361106200D+01 EUMP2 =    -0.42435617044429D+03
 SCF Done:  E(RHF) =  -422.995550083     A.U. after   11 cycles
 E2 =    -0.1360900438D+01 EUMP2 =    -0.42435645052019D+03
 SCF Done:  E(RHF) =  -422.995719147     A.U. after   13 cycles
 E2 =    -0.1360779587D+01 EUMP2 =    -0.42435649873373D+03
 SCF Done:  E(RHF) =  -422.995740289     A.U. after   12 cycles
 E2 =    -0.1360858128D+01 EUMP2 =    -0.42435659841686D+03
 SCF Done:  E(RHF) =  -422.995788310     A.U. after   11 cycles
 E2 =    -0.1360843730D+01 EUMP2 =    -0.42435663204033D+03
 SCF Done:  E(RHF) =  -422.995795596     A.U. after    9 cycles
 E2 =    -0.1360838426D+01 EUMP2 =    -0.42435663402161D+03
 SCF Done:  E(RHF) =  -422.995800447     A.U. after    9 cycles
 E2 =    -0.1360833853D+01 EUMP2 =    -0.42435663430033D+03
 Optimization completed.
    -- Stationary point found.

                         Standard orientation:
 ---------------------------------------------------------------------
 Center     Atomic      Atomic             Coordinates (Angstroms)
 Number     Number       Type             X           Y           Z
 ---------------------------------------------------------------------
      1          6           0        0.062497    2.506817   -0.055508
      2          1           0       -1.003799    2.307587    0.031363
      3          1           0        0.272216    2.760304   -1.095088
      4          1           0        0.290226    3.377964    0.557111
      5          6           0        0.887318    1.305521    0.391795
      6          1           0        1.946491    1.571320    0.379617
      7          1           0        0.631854    1.027642    1.412840
      8          6           0        0.722400    0.096346   -0.521435
      9          1           0        1.114028    0.356602   -1.509028
     10          6           0        1.416758   -1.172891   -0.042116
     11          1           0        1.139230   -1.976314   -0.727795
     12          1           0        1.035245   -1.437086    0.942708
     13          6           0        2.936077   -1.032626   -0.006412
     14          1           0        3.255930   -0.316057    0.748054
     15          1           0        3.400674   -1.988784    0.229367
     16          1           0        3.323202   -0.703257   -0.971592
     17          8           0       -0.679534   -0.169930   -0.836271
     18          6           0       -1.527216   -0.478887    0.175128
     19          8           0       -1.218381   -0.560219    1.353152
     20          6           0       -2.912675   -0.703117   -0.373087
     21          1           0       -3.583537   -0.955773    0.441205
     22          1           0       -3.257524    0.197067   -0.877992
     23          1           0       -2.891874   -1.507004   -1.106014
 ---------------------------------------------------------------------

 The electronic state is 1-A.
 Alpha  occ. eigenvalues --  -20.59999 -20.54809 -11.38371 -11.28877 -11.23767
 Alpha  occ. eigenvalues --  -11.21906 -11.21834 -11.21802 -11.21344  -1.44344
 Alpha  occ. eigenvalues --   -1.34710  -1.09169  -1.02265  -1.01351  -0.92744
 Alpha  occ. eigenvalues --   -0.84559  -0.82785  -0.73088  -0.68547  -0.66408
 Alpha  occ. eigenvalues --   -0.65405  -0.61808  -0.60770  -0.59866  -0.57296
 Alpha  occ. eigenvalues --   -0.56518  -0.54505  -0.53764  -0.52064  -0.50881
 Alpha  occ. eigenvalues --   -0.49890  -0.48990  -0.47394  -0.46432  -0.43528
 Alpha  occ. eigenvalues --   -0.42544
 Alpha virt. eigenvalues --    0.18346   0.22991   0.23696   0.26089   0.27833
 Alpha virt. eigenvalues --    0.28332   0.30365   0.31019   0.31422   0.32317
 Alpha virt. eigenvalues --    0.32928   0.34025   0.34542   0.35549   0.36642

 Mulliken charges:
               1
     1  C   -0.325966
     2  H    0.113448
     3  H    0.108304
     4  H    0.116065
     5  C   -0.252425
     6  H    0.116177
     7  H    0.158871
     8  C    0.227968
     9  H    0.127999
    10  C   -0.245521
    11  H    0.120159
    12  H    0.158168
    13  C   -0.349318
    14  H    0.119464
    15  H    0.122554
    16  H    0.108729
    17  O   -0.672505
    18  C    0.776120
    19  O   -0.591998
    20  C   -0.401861
    21  H    0.156638
    22  H    0.154223
    23  H    0.154707
 Sum of Mulliken charges =  -0.00000

 Dipole moment (field-independent basis, Debye):
    X=              0.2106    Y=              0.2012    Z=             -1.7549  Tot=              1.7789
 Quadrupole moment (field-independent basis, Debye-Ang):
   XX=            -50.9327   YY=            -55.6982   ZZ=            -61.6576
   XY=              0.7288   XZ=              2.5291   YZ=              1.7080

 Normal termination of Gaussian 16 at Sun Sep 19 21:45:26 2021.
