 Gaussian 16, Revision A.03,
 Gaussian 16:  EM64L-G16RevA.03 25-Dec-2016

 ---------------------
 #p opt mp2/6-31g(d,p)
 ---------------------

 -------------------------------------------------
 Conformer number 009. Energy MM = -6.900 kcal/mol
 -------------------------------------------------
 Symbolic Z-matrix:
 Charge =  0 Multiplicity = 1

 SCF Done:  E(RHF) =  -422.995973281     A.U. after   13 cycles
 E2 =    -0.1360970955D+01 EUMP2 =    -0.42435694423600D+03
 SCF Done:  E(RHF) =  -422.999068478     A.U. after   12 cycles
 E2 =    -0.1360218284D+01 EUMP2 =    -0.42435928676186D+03
 SCF Done:  E(RHF) =  -422.998955185     A.U. after   11 cycles
 E2 =    -0.1360299515D+01 EUMP2 =    -0.42435925469980D+03
 SCF Done:  E(RHF) =  -422.999321450     A.U. after   12 cycles
 E2 =    -0.1360267393D+01 EUMP2 =    -0.42435958884303D+03
 SCF Done:  E(RHF) =  -422.999245026     A.U. after   11 cycles
 E2 =    -0.1360424924D+01 EUMP2 =    -0.42435966994950D+03
 SCF Done:  E(RHF) =  -422.999197931     A.U. after    9 cycles
 E2 =    -0.1360476432D+01 EUMP2 =    -0.42435967436283D+03
 SCF Done:  E(RHF) =  -422.999203135     A.U. after    8 cycles
 E2 =    -0.1360472233D+01 EUMP2 =    -0.42435967536781D+03
 SCF Done:  E(RHF) =  -422.999212506     A.U. after    8 cycles
 E2 =    -0.1360463479D+01 EUMP2 =    -0.42435967598507D+03
 SCF Done:  E(RHF) =  -422.999231291     A.U. after    7 cycles
 E2 =    -0.1360446104D+01 EUMP2 =    -0.42435967739488D+03
 SCF Done:  E(RHF) =  -422.999255550     A.U. after    9 cycles
 E2 =    -0.1360424134D+01 EUMP2 =    -0.42435967968409D+03
 SCF Done:  E(RHF) =  -422.999266344     A.U. after    9 cycles
 E2 =    -0.1360414915D+01 EUMP2 =    -0.42435968125926D+03
 SCF Done:  E(RHF) =  -422.999246580     A.U. after    9 cycles
 E2 =    -0.1360435704D+01 EUMP2 =    -0.42435968228440D+03
 SCF Done:  E(RHF) =  -422.999239796     A.U. after    7 cycles
 E2 =    -0.1360442523D+01 EUMP2 =    -0.42435968231926D+03
 Optimization completed.
    -- Stationary point found.

                         Standard orientation:
 ---------------------------------------------------------------------
 Center     Atomic      Atomic             Coordinates (Angstroms)
 Number     Number       Type             X           Y           Z
 ---------------------------------------------------------------------
      1          6           0       -1.843835    1.928821   -0.348060
      2          1           0       -2.462381    1.376092   -1.053902
      3          1           0       -0.975736    2.310116   -0.882288
      4          1           0       -2.426366    2.778555    0.005471
      5          6           0       -1.407950    1.054949    0.822628
      6          1           0       -0.885175    1.663988    1.562501
      7          1           0       -2.279955    0.633888    1.327267
      8          6           0       -0.480579   -0.088095    0.437760
      9          1           0       -0.213912   -0.664472    1.326174
     10          6           0       -1.011665   -1.035978   -0.628444
     11          1           0       -0.243457   -1.788885   -0.806572
     12          1           0       -1.144455   -0.483380   -1.559846
     13          6           0       -2.313629   -1.719083   -0.221875
     14          1           0       -3.133760   -1.007317   -0.138181
     15          1           0       -2.598934   -2.468266   -0.958795
     16          1           0       -2.204154   -2.222682    0.739017
     17          8           0        0.734528    0.543963   -0.060554
     18          6           0        1.879576   -0.172899    0.083151
     19          8           0        1.939163   -1.279600    0.592589
     20          6           0        3.046542    0.597046   -0.474599
     21          1           0        2.887876    0.782112   -1.535186
     22          1           0        3.123330    1.561455    0.022979
     23          1           0        3.956788    0.025317   -0.328290
 ---------------------------------------------------------------------

 The electronic state is 1-A.
 Alpha  occ. eigenvalues --  -20.60017 -20.54863 -11.38345 -11.28432 -11.23885
 Alpha  occ. eigenvalues --  -11.22407 -11.21937 -11.21773 -11.21366  -1.44477
 Alpha  occ. eigenvalues --   -1.34686  -1.09444  -1.01973  -1.01501  -0.92776
 Alpha  occ. eigenvalues --   -0.85775  -0.80460  -0.74945  -0.68976  -0.66300
 Alpha  occ. eigenvalues --   -0.65232  -0.63142  -0.60079  -0.58536  -0.57055
 Alpha  occ. eigenvalues --   -0.56579  -0.56288  -0.53619  -0.52011  -0.50314
 Alpha  occ. eigenvalues --   -0.50252  -0.48656  -0.47587  -0.46041  -0.44108
 Alpha  occ. eigenvalues --   -0.43075
 Alpha virt. eigenvalues --    0.18590   0.22100   0.25008   0.26521   0.27389
 Alpha virt. eigenvalues --    0.28310   0.30178   0.30902   0.31325   0.32684
 Alpha virt. eigenvalues --    0.33190   0.33658   0.34911   0.35971   0.36829

 Mulliken charges:
               1
     1  C   -0.343844
     2  H    0.111272
     3  H    0.132802
     4  H    0.114978
     5  C   -0.221975
     6  H    0.124827
     7  H    0.117607
     8  C    0.192951
     9  H    0.154632
    10  C   -0.234566
    11  H    0.144694
    12  H    0.119297
    13  C   -0.350189
    14  H    0.113403
    15  H    0.121950
    16  H    0.117945
    17  O   -0.662777
    18  C    0.772268
    19  O   -0.589065
    20  C   -0.403696
    21  H    0.154931
    22  H    0.154673
    23  H    0.157882
 Sum of Mulliken charges =  -0.00000

 Dipole moment (field-independent basis, Debye):
    X=             -0.7024    Y=              1.7191    Z=             -0.7779  Tot=              2.0134
 Quadrupole moment (field-independent basis, Debye-Ang):
   XX=            -53.6373   YY=            -60.2960   ZZ=            -56.2789
   XY=              5.6665   XZ=             -3.2462   YZ=              2.2939

 Normal termination of Gaussian 16 at Sun Sep 19 20:31:50 2021.
