 Gaussian 16, Revision A.03,
 Gaussian 16:  EM64L-G16RevA.03 25-Dec-2016

 ---------------------
 #p opt mp2/6-31g(d,p)
 ---------------------

 -------------------------------------------------
 Conformer number 011. Energy MM = -6.067 kcal/mol
 -------------------------------------------------
 Symbolic Z-matrix:
 Charge =  0 Multiplicity = 1

 SCF Done:  E(RHF) =  -422.994027044     A.U. after   13 cycles
 E2 =    -0.1361787008D+01 EUMP2 =    -0.42435581405278D+03
 SCF Done:  E(RHF) =  -422.997993324     A.U. after   12 cycles
 E2 =    -0.1360650479D+01 EUMP2 =    -0.42435864380347D+03
 SCF Done:  E(RHF) =  -422.997773389     A.U. after   12 cycles
 E2 =    -0.1360384509D+01 EUMP2 =    -0.42435815789762D+03
 SCF Done:  E(RHF) =  -422.998590643     A.U. after   11 cycles
 E2 =    -0.1360610776D+01 EUMP2 =    -0.42435920141982D+03
 SCF Done:  E(RHF) =  -422.998491366     A.U. after   10 cycles
 E2 =    -0.1360752936D+01 EUMP2 =    -0.42435924430237D+03
 SCF Done:  E(RHF) =  -422.998495890     A.U. after   10 cycles
 E2 =    -0.1360766205D+01 EUMP2 =    -0.42435926209555D+03
 SCF Done:  E(RHF) =  -422.998497840     A.U. after   11 cycles
 E2 =    -0.1360801194D+01 EUMP2 =    -0.42435929903400D+03
 SCF Done:  E(RHF) =  -422.998527946     A.U. after   10 cycles
 E2 =    -0.1360796310D+01 EUMP2 =    -0.42435932425625D+03
 SCF Done:  E(RHF) =  -422.998659683     A.U. after   11 cycles
 E2 =    -0.1360734541D+01 EUMP2 =    -0.42435939422414D+03
 SCF Done:  E(RHF) =  -422.998903765     A.U. after   11 cycles
 E2 =    -0.1360610730D+01 EUMP2 =    -0.42435951449492D+03
 SCF Done:  E(RHF) =  -422.999050881     A.U. after   12 cycles
 E2 =    -0.1360536567D+01 EUMP2 =    -0.42435958744841D+03
 SCF Done:  E(RHF) =  -422.999102110     A.U. after   11 cycles
 E2 =    -0.1360543533D+01 EUMP2 =    -0.42435964564249D+03
 SCF Done:  E(RHF) =  -422.999039281     A.U. after   13 cycles
 E2 =    -0.1360569267D+01 EUMP2 =    -0.42435960854806D+03
 SCF Done:  E(RHF) =  -422.999227141     A.U. after   12 cycles
 E2 =    -0.1360483135D+01 EUMP2 =    -0.42435971027620D+03
 SCF Done:  E(RHF) =  -422.999128932     A.U. after   11 cycles
 E2 =    -0.1360546900D+01 EUMP2 =    -0.42435967583163D+03
 SCF Done:  E(RHF) =  -422.999211347     A.U. after   11 cycles
 E2 =    -0.1360505570D+01 EUMP2 =    -0.42435971691777D+03
 SCF Done:  E(RHF) =  -422.999214503     A.U. after    9 cycles
 E2 =    -0.1360502951D+01 EUMP2 =    -0.42435971745420D+03
 SCF Done:  E(RHF) =  -422.999214588     A.U. after    7 cycles
 E2 =    -0.1360502887D+01 EUMP2 =    -0.42435971747470D+03
 SCF Done:  E(RHF) =  -422.999212184     A.U. after    6 cycles
 E2 =    -0.1360505316D+01 EUMP2 =    -0.42435971750078D+03
 Optimization completed.
    -- Stationary point found.

                         Standard orientation:
 ---------------------------------------------------------------------
 Center     Atomic      Atomic             Coordinates (Angstroms)
 Number     Number       Type             X           Y           Z
 ---------------------------------------------------------------------
      1          6           0       -1.156657    2.061783   -0.493983
      2          1           0       -2.061384    1.769474   -1.025732
      3          1           0       -0.329619    2.046733   -1.201898
      4          1           0       -1.292095    3.086950   -0.152086
      5          6           0       -0.869397    1.138037    0.683952
      6          1           0       -0.035321    1.522667    1.271867
      7          1           0       -1.728320    1.103876    1.357837
      8          6           0       -0.519088   -0.289405    0.280756
      9          1           0       -0.311745   -0.870600    1.181688
     10          6           0       -1.554741   -1.002341   -0.572821
     11          1           0       -1.165029   -1.995373   -0.803312
     12          1           0       -1.657067   -0.479677   -1.524906
     13          6           0       -2.909973   -1.122940    0.116239
     14          1           0       -3.377039   -0.149308    0.256395
     15          1           0       -3.588359   -1.733367   -0.477709
     16          1           0       -2.809586   -1.591637    1.095601
     17          8           0        0.694473   -0.275344   -0.526511
     18          6           0        1.865587   -0.239940    0.162210
     19          8           0        1.947893   -0.222660    1.379025
     20          6           0        3.028501   -0.223911   -0.793385
     21          1           0        2.976036   -1.087510   -1.452811
     22          1           0        2.979358    0.669982   -1.412266
     23          1           0        3.955845   -0.235869   -0.230584
 ---------------------------------------------------------------------

 The electronic state is 1-A.
 Alpha  occ. eigenvalues --  -20.60031 -20.54893 -11.38346 -11.28444 -11.23895
 Alpha  occ. eigenvalues --  -11.22354 -11.22016 -11.21987 -11.21331  -1.44474
 Alpha  occ. eigenvalues --   -1.34701  -1.09473  -1.02003  -1.01531  -0.92884
 Alpha  occ. eigenvalues --   -0.86145  -0.79861  -0.74756  -0.68776  -0.66720
 Alpha  occ. eigenvalues --   -0.65910  -0.63267  -0.60497  -0.58476  -0.57138
 Alpha  occ. eigenvalues --   -0.56843  -0.54597  -0.53806  -0.52117  -0.50968
 Alpha  occ. eigenvalues --   -0.50335  -0.48523  -0.47555  -0.45986  -0.44237
 Alpha  occ. eigenvalues --   -0.43160
 Alpha virt. eigenvalues --    0.18488   0.21849   0.24617   0.26622   0.27870
 Alpha virt. eigenvalues --    0.28302   0.29609   0.30715   0.31116   0.32716
 Alpha virt. eigenvalues --    0.33100   0.33893   0.34953   0.36025   0.36699

 Mulliken charges:
               1
     1  C   -0.342404
     2  H    0.110175
     3  H    0.124458
     4  H    0.116773
     5  C   -0.238409
     6  H    0.145225
     7  H    0.116537
     8  C    0.194427
     9  H    0.154876
    10  C   -0.220988
    11  H    0.124640
    12  H    0.125251
    13  C   -0.349519
    14  H    0.117312
    15  H    0.121520
    16  H    0.115509
    17  O   -0.663306
    18  C    0.771704
    19  O   -0.587836
    20  C   -0.403482
    21  H    0.155141
    22  H    0.154513
    23  H    0.157883
 Sum of Mulliken charges =  -0.00000

 Dipole moment (field-independent basis, Debye):
    X=             -0.7745    Y=             -0.0248    Z=             -1.8916  Tot=              2.0441
 Quadrupole moment (field-independent basis, Debye-Ang):
   XX=            -53.4719   YY=            -55.3920   ZZ=            -61.3069
   XY=              0.4662   XZ=             -6.4468   YZ=              0.5979

 Normal termination of Gaussian 16 at Sun Sep 19 20:42:56 2021.
