 Gaussian 16, Revision A.03,
 Gaussian 16:  EM64L-G16RevA.03 25-Dec-2016

 ---------------------
 #p opt mp2/6-31g(d,p)
 ---------------------

 -------------------------------------------------
 Conformer number 001. Energy MM = -6.803 kcal/mol
 -------------------------------------------------
 Symbolic Z-matrix:
 Charge =  0 Multiplicity = 1

 SCF Done:  E(RHF) =  -422.995548487     A.U. after   13 cycles
 E2 =    -0.1361187749D+01 EUMP2 =    -0.42435673623611D+03
 SCF Done:  E(RHF) =  -422.999621608     A.U. after   12 cycles
 E2 =    -0.1360114925D+01 EUMP2 =    -0.42435973653276D+03
 SCF Done:  E(RHF) =  -422.998742299     A.U. after   12 cycles
 E2 =    -0.1360389603D+01 EUMP2 =    -0.42435913190262D+03
 SCF Done:  E(RHF) =  -423.000189691     A.U. after   11 cycles
 E2 =    -0.1360389408D+01 EUMP2 =    -0.42436057909935D+03
 SCF Done:  E(RHF) =  -423.000209640     A.U. after   11 cycles
 E2 =    -0.1360416255D+01 EUMP2 =    -0.42436062589519D+03
 SCF Done:  E(RHF) =  -423.000237019     A.U. after   11 cycles
 E2 =    -0.1360402200D+01 EUMP2 =    -0.42436063921904D+03
 SCF Done:  E(RHF) =  -423.000277858     A.U. after   11 cycles
 E2 =    -0.1360372293D+01 EUMP2 =    -0.42436065015132D+03
 SCF Done:  E(RHF) =  -423.000314285     A.U. after    9 cycles
 E2 =    -0.1360352020D+01 EUMP2 =    -0.42436066630498D+03
 SCF Done:  E(RHF) =  -423.000384610     A.U. after   10 cycles
 E2 =    -0.1360312911D+01 EUMP2 =    -0.42436069752148D+03
 SCF Done:  E(RHF) =  -423.000423909     A.U. after   10 cycles
 E2 =    -0.1360292267D+01 EUMP2 =    -0.42436071617650D+03
 SCF Done:  E(RHF) =  -423.000416723     A.U. after   10 cycles
 E2 =    -0.1360302943D+01 EUMP2 =    -0.42436071966579D+03
 SCF Done:  E(RHF) =  -423.000419142     A.U. after    7 cycles
 E2 =    -0.1360300603D+01 EUMP2 =    -0.42436071974545D+03
 SCF Done:  E(RHF) =  -423.000415610     A.U. after    7 cycles
 E2 =    -0.1360304158D+01 EUMP2 =    -0.42436071976887D+03
 Optimization completed.
    -- Stationary point found.

                         Standard orientation:
 ---------------------------------------------------------------------
 Center     Atomic      Atomic             Coordinates (Angstroms)
 Number     Number       Type             X           Y           Z
 ---------------------------------------------------------------------
      1          6           0        1.515595   -2.340522   -0.065372
      2          1           0        0.632349   -2.555854   -0.663061
      3          1           0        1.326907   -2.678542    0.953880
      4          1           0        2.347006   -2.920448   -0.463543
      5          6           0        1.825191   -0.848559   -0.092167
      6          1           0        2.724142   -0.639339    0.493464
      7          1           0        2.028725   -0.529474   -1.115340
      8          6           0        0.697038   -0.007077    0.477418
      9          1           0        0.411794   -0.382230    1.462721
     10          6           0        0.995351    1.483708    0.583521
     11          1           0        1.824187    1.607790    1.285563
     12          1           0        0.127005    1.960762    1.039585
     13          6           0        1.325670    2.152654   -0.746159
     14          1           0        0.535459    1.970429   -1.472476
     15          1           0        1.425529    3.229439   -0.616718
     16          1           0        2.260840    1.782532   -1.163428
     17          8           0       -0.437149   -0.213281   -0.414839
     18          6           0       -1.668110   -0.071984    0.144514
     19          8           0       -1.863084    0.213620    1.313980
     20          6           0       -2.736760   -0.319488   -0.886187
     21          1           0       -2.630981    0.393713   -1.701281
     22          1           0       -2.622368   -1.318381   -1.302118
     23          1           0       -3.712581   -0.215498   -0.423790
 ---------------------------------------------------------------------

 The electronic state is 1-A.
 Alpha  occ. eigenvalues --  -20.60108 -20.54965 -11.38412 -11.28463 -11.23967
 Alpha  occ. eigenvalues --  -11.22406 -11.22075 -11.21424 -11.21307  -1.44546
 Alpha  occ. eigenvalues --   -1.34780  -1.09275  -1.02323  -1.01467  -0.92695
 Alpha  occ. eigenvalues --   -0.84870  -0.81440  -0.74780  -0.68818  -0.66875
 Alpha  occ. eigenvalues --   -0.65066  -0.61561  -0.60539  -0.59857  -0.58204
 Alpha  occ. eigenvalues --   -0.56184  -0.54213  -0.54063  -0.52568  -0.50813
 Alpha  occ. eigenvalues --   -0.49046  -0.48418  -0.48115  -0.45996  -0.44255
 Alpha  occ. eigenvalues --   -0.43231
 Alpha virt. eigenvalues --    0.18437   0.22471   0.24880   0.25785   0.27335
 Alpha virt. eigenvalues --    0.28469   0.29942   0.30242   0.31552   0.32366
 Alpha virt. eigenvalues --    0.33383   0.33780   0.34268   0.35533   0.36387

 Mulliken charges:
               1
     1  C   -0.339248
     2  H    0.127228
     3  H    0.111346
     4  H    0.115041
     5  C   -0.219800
     6  H    0.114402
     7  H    0.126129
     8  C    0.184814
     9  H    0.154991
    10  C   -0.233484
    11  H    0.113342
    12  H    0.144709
    13  C   -0.341678
    14  H    0.123431
    15  H    0.116419
    16  H    0.111499
    17  O   -0.659424
    18  C    0.773156
    19  O   -0.586907
    20  C   -0.403700
    21  H    0.154654
    22  H    0.154735
    23  H    0.158346
 Sum of Mulliken charges =  -0.00000

 Dipole moment (field-independent basis, Debye):
    X=              0.8741    Y=             -0.3912    Z=             -1.7881  Tot=              2.0284
 Quadrupole moment (field-independent basis, Debye-Ang):
   XX=            -54.2872   YY=            -56.0503   ZZ=            -60.2399
   XY=              1.2993   XZ=              6.8916   YZ=             -0.6253

 Normal termination of Gaussian 16 at Sun Sep 19 20:28:36 2021.
