 Gaussian 16, Revision A.03,
 Gaussian 16:  EM64L-G16RevA.03 25-Dec-2016

 ---------------------
 #p opt mp2/6-31g(d,p)
 ---------------------

 -------------------------------------------------
 Conformer number 006. Energy MM = -6.223 kcal/mol
 -------------------------------------------------
 Symbolic Z-matrix:
 Charge =  0 Multiplicity = 1

 SCF Done:  E(RHF) =  -422.995143768     A.U. after   13 cycles
 E2 =    -0.1360289448D+01 EUMP2 =    -0.42435543321562D+03
 SCF Done:  E(RHF) =  -422.999191660     A.U. after   12 cycles
 E2 =    -0.1359898451D+01 EUMP2 =    -0.42435909011153D+03
 SCF Done:  E(RHF) =  -422.998853767     A.U. after   12 cycles
 E2 =    -0.1359901510D+01 EUMP2 =    -0.42435875527671D+03
 SCF Done:  E(RHF) =  -423.000057056     A.U. after   11 cycles
 E2 =    -0.1359963551D+01 EUMP2 =    -0.42436002060692D+03
 SCF Done:  E(RHF) =  -423.000144242     A.U. after   11 cycles
 E2 =    -0.1359951633D+01 EUMP2 =    -0.42436009587528D+03
 SCF Done:  E(RHF) =  -423.000220256     A.U. after   10 cycles
 E2 =    -0.1359905886D+01 EUMP2 =    -0.42436012614180D+03
 SCF Done:  E(RHF) =  -423.000367391     A.U. after   11 cycles
 E2 =    -0.1359818881D+01 EUMP2 =    -0.42436018627259D+03
 SCF Done:  E(RHF) =  -423.000430257     A.U. after   10 cycles
 E2 =    -0.1359771195D+01 EUMP2 =    -0.42436020145238D+03
 SCF Done:  E(RHF) =  -423.000509654     A.U. after   10 cycles
 E2 =    -0.1359752660D+01 EUMP2 =    -0.42436026231457D+03
 SCF Done:  E(RHF) =  -423.000668652     A.U. after   11 cycles
 E2 =    -0.1359738283D+01 EUMP2 =    -0.42436040693485D+03
 SCF Done:  E(RHF) =  -423.000704829     A.U. after   10 cycles
 E2 =    -0.1359724538D+01 EUMP2 =    -0.42436042936682D+03
 SCF Done:  E(RHF) =  -423.000713534     A.U. after   10 cycles
 E2 =    -0.1359720900D+01 EUMP2 =    -0.42436043443421D+03
 SCF Done:  E(RHF) =  -423.000712170     A.U. after    9 cycles
 E2 =    -0.1359722674D+01 EUMP2 =    -0.42436043484387D+03
 SCF Done:  E(RHF) =  -423.000718414     A.U. after    8 cycles
 E2 =    -0.1359716554D+01 EUMP2 =    -0.42436043496836D+03
 SCF Done:  E(RHF) =  -423.000715604     A.U. after    8 cycles
 E2 =    -0.1359719548D+01 EUMP2 =    -0.42436043515148D+03
 Optimization completed.
    -- Stationary point found.

                         Standard orientation:
 ---------------------------------------------------------------------
 Center     Atomic      Atomic             Coordinates (Angstroms)
 Number     Number       Type             X           Y           Z
 ---------------------------------------------------------------------
      1          6           0        2.542825   -1.646877    0.060397
      2          1           0        2.509576   -1.704449    1.148659
      3          1           0        3.320026   -0.937212   -0.217862
      4          1           0        2.839589   -2.625029   -0.314941
      5          6           0        1.181043   -1.250453   -0.502393
      6          1           0        1.234566   -1.131850   -1.587101
      7          1           0        0.460358   -2.042057   -0.294892
      8          6           0        0.631714    0.037825    0.094133
      9          1           0        0.519415   -0.079334    1.174975
     10          6           0        1.443250    1.281450   -0.221310
     11          1           0        1.524000    1.376861   -1.307014
     12          1           0        2.454252    1.134912    0.162601
     13          6           0        0.844274    2.548333    0.378051
     14          1           0        0.755320    2.457164    1.460967
     15          1           0        1.469700    3.413934    0.164269
     16          1           0       -0.147087    2.733361   -0.028956
     17          8           0       -0.690884    0.280802   -0.465813
     18          6           0       -1.723314   -0.354286    0.148556
     19          8           0       -1.600556   -1.095123    1.109631
     20          6           0       -3.022055   -0.005316   -0.527429
     21          1           0       -3.181282    1.070238   -0.483479
     22          1           0       -2.977693   -0.291924   -1.576125
     23          1           0       -3.835646   -0.524107   -0.031677
 ---------------------------------------------------------------------

 The electronic state is 1-A.
 Alpha  occ. eigenvalues --  -20.60046 -20.54886 -11.38353 -11.28423 -11.23903
 Alpha  occ. eigenvalues --  -11.22390 -11.22058 -11.21753 -11.21373  -1.44513
 Alpha  occ. eigenvalues --   -1.34721  -1.09353  -1.02413  -1.01476  -0.92622
 Alpha  occ. eigenvalues --   -0.84619  -0.80975  -0.76325  -0.68768  -0.66182
 Alpha  occ. eigenvalues --   -0.64877  -0.61765  -0.60376  -0.60013  -0.57431
 Alpha  occ. eigenvalues --   -0.56746  -0.55394  -0.52914  -0.52423  -0.50522
 Alpha  occ. eigenvalues --   -0.49740  -0.48526  -0.47970  -0.46347  -0.44101
 Alpha  occ. eigenvalues --   -0.43179
 Alpha virt. eigenvalues --    0.18563   0.23208   0.24031   0.26036   0.27199
 Alpha virt. eigenvalues --    0.28057   0.30566   0.30950   0.31133   0.32000
 Alpha virt. eigenvalues --    0.32868   0.33382   0.34461   0.34577   0.37035

 Mulliken charges:
               1
     1  C   -0.350517
     2  H    0.119099
     3  H    0.113359
     4  H    0.121966
     5  C   -0.227211
     6  H    0.115220
     7  H    0.141612
     8  C    0.196833
     9  H    0.151001
    10  C   -0.220993
    11  H    0.119879
    12  H    0.119122
    13  C   -0.337978
    14  H    0.110961
    15  H    0.114257
    16  H    0.128805
    17  O   -0.663386
    18  C    0.772994
    19  O   -0.588696
    20  C   -0.404040
    21  H    0.154555
    22  H    0.155189
    23  H    0.157970
 Sum of Mulliken charges =  -0.00000

 Dipole moment (field-independent basis, Debye):
    X=              0.4348    Y=              1.1769    Z=             -1.5672  Tot=              2.0075
 Quadrupole moment (field-independent basis, Debye-Ang):
   XX=            -51.6634   YY=            -58.5573   ZZ=            -59.3858
   XY=             -2.5090   XZ=              3.9794   YZ=              3.3493

 Normal termination of Gaussian 16 at Sun Sep 19 20:32:08 2021.
