 Gaussian 16, Revision A.03,
 Gaussian 16:  EM64L-G16RevA.03 25-Dec-2016

 -------------------------------------------
 #p opt blyp/6-31G** EmpiricalDispersion=GD3
 -------------------------------------------

 ------------------------------------------------
 Conformer number 011. Energy MM = 0.000 kcal/mol
 ------------------------------------------------
 Symbolic Z-matrix:
 Charge =  0 Multiplicity = 1

 SCF Done:  E(RB-LYP) =  -272.812447601     A.U. after   13 cycles
 SCF Done:  E(RB-LYP) =  -272.846232631     A.U. after   12 cycles
 SCF Done:  E(RB-LYP) =  -272.855759580     A.U. after   12 cycles
 SCF Done:  E(RB-LYP) =  -272.857037621     A.U. after   10 cycles
 SCF Done:  E(RB-LYP) =  -272.857526339     A.U. after   10 cycles
 SCF Done:  E(RB-LYP) =  -272.857721011     A.U. after   10 cycles
 SCF Done:  E(RB-LYP) =  -272.857756887     A.U. after    9 cycles
 SCF Done:  E(RB-LYP) =  -272.857774184     A.U. after    9 cycles
 SCF Done:  E(RB-LYP) =  -272.857776760     A.U. after    7 cycles
 SCF Done:  E(RB-LYP) =  -272.857777299     A.U. after    7 cycles
 SCF Done:  E(RB-LYP) =  -272.857777481     A.U. after    7 cycles
 SCF Done:  E(RB-LYP) =  -272.857777590     A.U. after    7 cycles
 Optimization completed.
    -- Stationary point found.

                         Standard orientation:
 ---------------------------------------------------------------------
 Center     Atomic      Atomic             Coordinates (Angstroms)
 Number     Number       Type             X           Y           Z
 ---------------------------------------------------------------------
      1          6           0        2.159619   -0.663055    0.072592
      2          1           0        3.057036   -0.729011   -0.562610
      3          1           0        1.705965   -1.666207    0.111957
      4          1           0        2.490384   -0.406720    1.093064
      5          6           0        1.170856    0.389487   -0.471874
      6          1           0        0.816981    0.080434   -1.473582
      7          1           0        1.683135    1.356031   -0.612548
      8          6           0       -0.053998    0.651604    0.437600
      9          1           0        0.311852    1.047009    1.402636
     10          8           0       -0.858447    1.732035   -0.099283
     11          6           0       -0.925102   -0.596734    0.739877
     12          1           0       -1.103167    1.472673   -1.009445
     13          1           0       -0.327727   -1.323413    1.318234
     14          1           0       -1.744927   -0.266145    1.399376
     15          6           0       -1.516487   -1.285804   -0.508436
     16          1           0       -0.732431   -1.708685   -1.157008
     17          1           0       -2.108668   -0.576586   -1.111300
     18          1           0       -2.190189   -2.108656   -0.223059
 ---------------------------------------------------------------------

 The electronic state is 1-A.
 Alpha  occ. eigenvalues --  -18.78208  -9.96418  -9.91958  -9.91745  -9.91724
 Alpha  occ. eigenvalues --   -9.91722  -0.90117  -0.70131  -0.66294  -0.59513
 Alpha  occ. eigenvalues --   -0.54872  -0.49655  -0.42209  -0.40537  -0.38584
 Alpha  occ. eigenvalues --   -0.36023  -0.35273  -0.33636  -0.31876  -0.31192
 Alpha  occ. eigenvalues --   -0.29293  -0.28683  -0.27811  -0.25402  -0.20064
 Alpha virt. eigenvalues --    0.04475   0.06477   0.09518   0.10829   0.12273
 Alpha virt. eigenvalues --    0.12485   0.12952   0.14763   0.15568   0.16868
 Alpha virt. eigenvalues --    0.17399   0.18556   0.19060   0.20781   0.21186

 Mulliken charges:
               1
     1  C   -0.292289
     2  H    0.090649
     3  H    0.097406
     4  H    0.094263
     5  C   -0.160110
     6  H    0.068711
     7  H    0.089800
     8  C    0.177859
     9  H    0.073251
    10  O   -0.516561
    11  C   -0.144128
    12  H    0.283136
    13  H    0.076354
    14  H    0.088333
    15  C   -0.299366
    16  H    0.096397
    17  H    0.082347
    18  H    0.093948
 Sum of Mulliken charges =  -0.00000

 Dipole moment (field-independent basis, Debye):
    X=              0.4302    Y=             -1.3625    Z=             -0.7212  Tot=              1.6005
 Quadrupole moment (field-independent basis, Debye-Ang):
   XX=            -39.5638   YY=            -43.6353   ZZ=            -37.8266
   XY=              1.5029   XZ=              1.3419   YZ=             -1.3687

 Normal termination of Gaussian 16 at Wed Sep  7 18:09:29 2022.
