 Gaussian 16, Revision A.03,
 Gaussian 16:  EM64L-G16RevA.03 25-Dec-2016

 -------------------------------------------
 #p opt blyp/6-31G** EmpiricalDispersion=GD3
 -------------------------------------------

 ------------------------------------------------
 Conformer number 012. Energy MM = 0.000 kcal/mol
 ------------------------------------------------
 Symbolic Z-matrix:
 Charge =  0 Multiplicity = 1

 SCF Done:  E(RB-LYP) =  -272.822623328     A.U. after   13 cycles
 SCF Done:  E(RB-LYP) =  -272.847824502     A.U. after   12 cycles
 SCF Done:  E(RB-LYP) =  -272.854654142     A.U. after   11 cycles
 SCF Done:  E(RB-LYP) =  -272.855635033     A.U. after   10 cycles
 SCF Done:  E(RB-LYP) =  -272.856411764     A.U. after   11 cycles
 SCF Done:  E(RB-LYP) =  -272.856877160     A.U. after   11 cycles
 SCF Done:  E(RB-LYP) =  -272.857431881     A.U. after   11 cycles
 SCF Done:  E(RB-LYP) =  -272.857751926     A.U. after   11 cycles
 SCF Done:  E(RB-LYP) =  -272.857827384     A.U. after   10 cycles
 SCF Done:  E(RB-LYP) =  -272.857802650     A.U. after   11 cycles
 SCF Done:  E(RB-LYP) =  -272.857853722     A.U. after   10 cycles
 SCF Done:  E(RB-LYP) =  -272.857853492     A.U. after    8 cycles
 SCF Done:  E(RB-LYP) =  -272.857854738     A.U. after    8 cycles
 SCF Done:  E(RB-LYP) =  -272.857854930     A.U. after    7 cycles
 SCF Done:  E(RB-LYP) =  -272.857855035     A.U. after    7 cycles
 SCF Done:  E(RB-LYP) =  -272.857855148     A.U. after    7 cycles
 Optimization completed.
    -- Stationary point found.

                         Standard orientation:
 ---------------------------------------------------------------------
 Center     Atomic      Atomic             Coordinates (Angstroms)
 Number     Number       Type             X           Y           Z
 ---------------------------------------------------------------------
      1          6           0        2.310347   -0.806778    0.156907
      2          1           0        1.943801   -1.724354   -0.329968
      3          1           0        2.298245   -0.979603    1.246497
      4          1           0        3.360263   -0.670183   -0.146572
      5          6           0        1.466298    0.427169   -0.223457
      6          1           0        1.449882    0.557925   -1.320078
      7          1           0        1.926271    1.339715    0.191507
      8          6           0        0.008967    0.383869    0.277053
      9          1           0        0.019365    0.256508    1.383577
     10          8           0       -0.552069    1.676847   -0.064871
     11          6           0       -0.821407   -0.768938   -0.336980
     12          1           0       -1.418512    1.742573    0.379647
     13          1           0       -0.766246   -0.686092   -1.436953
     14          1           0       -0.356367   -1.731104   -0.060898
     15          6           0       -2.297139   -0.770106    0.114145
     16          1           0       -2.380600   -0.827585    1.213432
     17          1           0       -2.845505   -1.627204   -0.306644
     18          1           0       -2.816444    0.143343   -0.220581
 ---------------------------------------------------------------------

 The electronic state is 1-A.
 Alpha  occ. eigenvalues --  -18.78254  -9.96467  -9.91855  -9.91744  -9.91363
 Alpha  occ. eigenvalues --   -9.91346  -0.90167  -0.70001  -0.66476  -0.59346
 Alpha  occ. eigenvalues --   -0.54038  -0.49053  -0.43898  -0.39691  -0.38381
 Alpha  occ. eigenvalues --   -0.37419  -0.34705  -0.32327  -0.31394  -0.30173
 Alpha  occ. eigenvalues --   -0.29496  -0.28828  -0.27584  -0.25645  -0.20194
 Alpha virt. eigenvalues --    0.04622   0.07348   0.10052   0.10715   0.11264
 Alpha virt. eigenvalues --    0.13522   0.13881   0.14070   0.15527   0.16156
 Alpha virt. eigenvalues --    0.16619   0.17687   0.19037   0.21933   0.22733

 Mulliken charges:
               1
     1  C   -0.293211
     2  H    0.095040
     3  H    0.089926
     4  H    0.091080
     5  C   -0.139976
     6  H    0.085551
     7  H    0.087759
     8  C    0.176080
     9  H    0.047582
    10  O   -0.518257
    11  C   -0.137875
    12  H    0.287646
    13  H    0.084356
    14  H    0.078245
    15  C   -0.305090
    16  H    0.089235
    17  H    0.094055
    18  H    0.087854
 Sum of Mulliken charges =  -0.00000

 Dipole moment (field-independent basis, Debye):
    X=             -0.6394    Y=             -1.0152    Z=              0.7484  Tot=              1.4141
 Quadrupole moment (field-independent basis, Debye-Ang):
   XX=            -37.1844   YY=            -42.1533   ZZ=            -39.5269
   XY=             -1.1566   XZ=             -1.0074   YZ=              1.5629

 Normal termination of Gaussian 16 at Wed Sep  7 18:10:11 2022.
