 Gaussian 16, Revision A.03,
 Gaussian 16:  EM64L-G16RevA.03 25-Dec-2016

 ---------------------
 #p opt mp2/6-31g(d,p)
 ---------------------

 -------------------------------------------------
 Conformer number 030. Energy MM = 27.340 kcal/mol
 -------------------------------------------------
 Symbolic Z-matrix:
 Charge =  0 Multiplicity = 1

 SCF Done:  E(RHF) =  -389.147247637     A.U. after   13 cycles
 E2 =    -0.1420924700D+01 EUMP2 =    -0.39056817233687D+03
 SCF Done:  E(RHF) =  -389.151114048     A.U. after   12 cycles
 E2 =    -0.1419701149D+01 EUMP2 =    -0.39057081519643D+03
 SCF Done:  E(RHF) =  -389.151488010     A.U. after   11 cycles
 E2 =    -0.1419896160D+01 EUMP2 =    -0.39057138416935D+03
 SCF Done:  E(RHF) =  -389.152184974     A.U. after   11 cycles
 E2 =    -0.1419456686D+01 EUMP2 =    -0.39057164165988D+03
 SCF Done:  E(RHF) =  -389.152280050     A.U. after   10 cycles
 E2 =    -0.1419447781D+01 EUMP2 =    -0.39057172783195D+03
 SCF Done:  E(RHF) =  -389.152707323     A.U. after   10 cycles
 E2 =    -0.1419101423D+01 EUMP2 =    -0.39057180874613D+03
 SCF Done:  E(RHF) =  -389.152809664     A.U. after    9 cycles
 E2 =    -0.1419039122D+01 EUMP2 =    -0.39057184878571D+03
 SCF Done:  E(RHF) =  -389.152821636     A.U. after    9 cycles
 E2 =    -0.1419047552D+01 EUMP2 =    -0.39057186918841D+03
 SCF Done:  E(RHF) =  -389.152831445     A.U. after   10 cycles
 E2 =    -0.1419088376D+01 EUMP2 =    -0.39057191982098D+03
 SCF Done:  E(RHF) =  -389.152856129     A.U. after   11 cycles
 E2 =    -0.1419127256D+01 EUMP2 =    -0.39057198338489D+03
 E2 =    -0.1419156539D+01 EUMP2 =    -0.39057198446031D+03
 E2 =    -0.1419149666D+01 EUMP2 =    -0.39057200890052D+03
 E2 =    -0.1416269766D+01 EUMP2 =    -0.39055684359699D+03
 E2 =    -0.1418818684D+01 EUMP2 =    -0.39057229318600D+03
 E2 =    -0.1418857493D+01 EUMP2 =    -0.39057246551946D+03
 E2 =    -0.1418959714D+01 EUMP2 =    -0.39057254554580D+03
 SCF Done:  E(RHF) =  -389.153566586     A.U. after    9 cycles
 E2 =    -0.1418990444D+01 EUMP2 =    -0.39057255703025D+03
 SCF Done:  E(RHF) =  -389.153745653     A.U. after    9 cycles
 E2 =    -0.1418845575D+01 EUMP2 =    -0.39057259122783D+03
 SCF Done:  E(RHF) =  -389.153780264     A.U. after    9 cycles
 E2 =    -0.1418823809D+01 EUMP2 =    -0.39057260407282D+03
 SCF Done:  E(RHF) =  -389.153782307     A.U. after    8 cycles
 E2 =    -0.1418830631D+01 EUMP2 =    -0.39057261293837D+03
 SCF Done:  E(RHF) =  -389.153800213     A.U. after    9 cycles
 E2 =    -0.1418818353D+01 EUMP2 =    -0.39057261856543D+03
 SCF Done:  E(RHF) =  -389.153789242     A.U. after    8 cycles
 E2 =    -0.1418830093D+01 EUMP2 =    -0.39057261933447D+03
 SCF Done:  E(RHF) =  -389.153790527     A.U. after    8 cycles
 E2 =    -0.1418829107D+01 EUMP2 =    -0.39057261963460D+03
 SCF Done:  E(RHF) =  -389.153792357     A.U. after    7 cycles
 E2 =    -0.1418827302D+01 EUMP2 =    -0.39057261965917D+03
 SCF Done:  E(RHF) =  -389.153795202     A.U. after    7 cycles
 E2 =    -0.1418824477D+01 EUMP2 =    -0.39057261967840D+03
 SCF Done:  E(RHF) =  -389.153797103     A.U. after    7 cycles
 E2 =    -0.1418822583D+01 EUMP2 =    -0.39057261968602D+03
 Optimization completed.
    -- Stationary point found.

                         Standard orientation:
 ---------------------------------------------------------------------
 Center     Atomic      Atomic             Coordinates (Angstroms)
 Number     Number       Type             X           Y           Z
 ---------------------------------------------------------------------
      1          6           0        0.653268    1.333912    0.512435
      2          1           0        1.186507    2.287832    0.488681
      3          1           0        0.106979    1.295695    1.458900
      4          6           0        1.643515    0.191362    0.448989
      5          6           0        1.303459   -1.010197    1.287572
      6          1           0        1.964503   -1.855270    1.111225
      7          1           0        1.360108   -0.753451    2.348014
      8          1           0        0.279217   -1.328058    1.091085
      9          6           0        2.733747    0.306122   -0.332701
     10          1           0        2.859443    1.246035   -0.865599
     11          6           0        3.815969   -0.703037   -0.568336
     12          1           0        3.651443   -1.629036   -0.023473
     13          1           0        3.891573   -0.947799   -1.629413
     14          1           0        4.786347   -0.305866   -0.264750
     15          6           0       -2.966291   -1.604069   -0.413479
     16          1           0       -2.313426   -2.277327   -0.967046
     17          1           0       -3.184253   -2.057598    0.556156
     18          1           0       -3.915795   -1.530735   -0.948757
     19          6           0       -2.342182   -0.246383   -0.242998
     20          6           0       -3.184683    0.743052    0.512847
     21          1           0       -2.697068    1.706272    0.638922
     22          1           0       -4.136286    0.905169    0.001633
     23          1           0       -3.422111    0.354333    1.505492
     24          6           0       -1.120899    0.019998   -0.744720
     25          1           0       -0.604510   -0.786883   -1.257203
     26          6           0       -0.362288    1.311242   -0.646994
     27          1           0        0.188406    1.466435   -1.578335
     28          1           0       -1.042774    2.158245   -0.541217
 ---------------------------------------------------------------------

 The electronic state is 1-A.
 Alpha  occ. eigenvalues --  -11.22962 -11.22417 -11.21792 -11.21683 -11.21675
 Alpha  occ. eigenvalues --  -11.21535 -11.21354 -11.21284 -11.21265 -11.21012
 Alpha  occ. eigenvalues --   -1.10804  -1.08206  -1.01895  -0.97250  -0.93820
 Alpha  occ. eigenvalues --   -0.92468  -0.87518  -0.81991  -0.70952  -0.68583
 Alpha  occ. eigenvalues --   -0.63918  -0.62733  -0.60156  -0.58812  -0.57940
 Alpha  occ. eigenvalues --   -0.57307  -0.55024  -0.53607  -0.53297  -0.53224
 Alpha  occ. eigenvalues --   -0.52542  -0.51120  -0.50742  -0.49799  -0.47074
 Alpha  occ. eigenvalues --   -0.46306  -0.44283  -0.33410  -0.31178
 Alpha virt. eigenvalues --    0.18327   0.19352   0.22789   0.25390   0.26270
 Alpha virt. eigenvalues --    0.27086   0.28389   0.29185   0.30264   0.30493
 Alpha virt. eigenvalues --    0.31600   0.32587   0.32978   0.33578   0.34754

 Mulliken charges:
               1
     1  C   -0.226031
     2  H    0.119467
     3  H    0.112599
     4  C    0.009455
     5  C   -0.348594
     6  H    0.112831
     7  H    0.119214
     8  H    0.130109
     9  C   -0.151396
    10  H    0.112215
    11  C   -0.351207
    12  H    0.115705
    13  H    0.118283
    14  H    0.119511
    15  C   -0.342616
    16  H    0.119539
    17  H    0.114765
    18  H    0.116517
    19  C    0.023413
    20  C   -0.349115
    21  H    0.120599
    22  H    0.120174
    23  H    0.119246
    24  C   -0.164393
    25  H    0.126073
    26  C   -0.228971
    27  H    0.119274
    28  H    0.113335
 Sum of Mulliken charges =  -0.00000

 Dipole moment (field-independent basis, Debye):
    X=             -0.4063    Y=             -0.0415    Z=              0.1927  Tot=              0.4515
 Quadrupole moment (field-independent basis, Debye-Ang):
   XX=            -64.1237   YY=            -64.2712   ZZ=            -66.2527
   XY=             -0.2461   XZ=             -1.9653   YZ=             -0.1500

 Normal termination of Gaussian 16 at Fri Sep 17 22:44:56 2021.
