 Gaussian 16, Revision A.03,
 Gaussian 16:  EM64L-G16RevA.03 25-Dec-2016

 ---------------------
 #p opt mp2/6-31g(d,p)
 ---------------------

 -------------------------------------------------
 Conformer number 042. Energy MM = 29.637 kcal/mol
 -------------------------------------------------
 Symbolic Z-matrix:
 Charge =  0 Multiplicity = 1

 SCF Done:  E(RHF) =  -389.144715678     A.U. after   12 cycles
 E2 =    -0.1419977064D+01 EUMP2 =    -0.39056469274233D+03
 SCF Done:  E(RHF) =  -389.148966000     A.U. after   11 cycles
 E2 =    -0.1419147222D+01 EUMP2 =    -0.39056811322247D+03
 SCF Done:  E(RHF) =  -389.151744630     A.U. after   13 cycles
 E2 =    -0.1418890421D+01 EUMP2 =    -0.39057063505107D+03
 SCF Done:  E(RHF) =  -389.148831499     A.U. after   14 cycles
 E2 =    -0.1420945942D+01 EUMP2 =    -0.39056977744029D+03
 SCF Done:  E(RHF) =  -389.154204425     A.U. after   12 cycles
 E2 =    -0.1418938642D+01 EUMP2 =    -0.39057314306700D+03
 SCF Done:  E(RHF) =  -389.154598223     A.U. after   11 cycles
 E2 =    -0.1418912889D+01 EUMP2 =    -0.39057351111203D+03
 SCF Done:  E(RHF) =  -389.154874574     A.U. after   10 cycles
 E2 =    -0.1418767111D+01 EUMP2 =    -0.39057364168538D+03
 SCF Done:  E(RHF) =  -389.155132090     A.U. after   10 cycles
 E2 =    -0.1418574767D+01 EUMP2 =    -0.39057370685666D+03
 SCF Done:  E(RHF) =  -389.155329951     A.U. after   10 cycles
 E2 =    -0.1418443324D+01 EUMP2 =    -0.39057377327458D+03
 SCF Done:  E(RHF) =  -389.155453363     A.U. after    9 cycles
 E2 =    -0.1418393619D+01 EUMP2 =    -0.39057384698158D+03
 SCF Done:  E(RHF) =  -389.155441106     A.U. after    9 cycles
 E2 =    -0.1418413938D+01 EUMP2 =    -0.39057385504459D+03
 SCF Done:  E(RHF) =  -389.155416046     A.U. after    9 cycles
 E2 =    -0.1418441001D+01 EUMP2 =    -0.39057385704725D+03
 SCF Done:  E(RHF) =  -389.155415605     A.U. after    8 cycles
 E2 =    -0.1418443350D+01 EUMP2 =    -0.39057385895463D+03
 SCF Done:  E(RHF) =  -389.155408241     A.U. after    8 cycles
 E2 =    -0.1418454552D+01 EUMP2 =    -0.39057386279317D+03
 SCF Done:  E(RHF) =  -389.155419160     A.U. after    8 cycles
 E2 =    -0.1418445408D+01 EUMP2 =    -0.39057386456807D+03
 SCF Done:  E(RHF) =  -389.155417749     A.U. after    8 cycles
 E2 =    -0.1418447067D+01 EUMP2 =    -0.39057386481651D+03
 SCF Done:  E(RHF) =  -389.155414882     A.U. after    7 cycles
 E2 =    -0.1418450029D+01 EUMP2 =    -0.39057386491088D+03
 SCF Done:  E(RHF) =  -389.155409170     A.U. after    7 cycles
 E2 =    -0.1418455860D+01 EUMP2 =    -0.39057386503029D+03
 SCF Done:  E(RHF) =  -389.155398221     A.U. after    8 cycles
 E2 =    -0.1418466905D+01 EUMP2 =    -0.39057386512603D+03
 SCF Done:  E(RHF) =  -389.155391535     A.U. after    7 cycles
 E2 =    -0.1418473644D+01 EUMP2 =    -0.39057386517834D+03
 Optimization completed.
    -- Stationary point found.

                         Standard orientation:
 ---------------------------------------------------------------------
 Center     Atomic      Atomic             Coordinates (Angstroms)
 Number     Number       Type             X           Y           Z
 ---------------------------------------------------------------------
      1          6           0       -0.661312   -1.313755    0.745636
      2          1           0       -1.103532   -2.276819    1.024656
      3          1           0       -0.238914   -0.874905    1.652521
      4          6           0       -1.730995   -0.405171    0.197024
      5          6           0       -2.506892   -0.957108   -0.968557
      6          1           0       -3.391209   -0.369595   -1.201540
      7          1           0       -1.890384   -1.000739   -1.868907
      8          1           0       -2.830436   -1.977745   -0.754872
      9          6           0       -1.915405    0.817972    0.728866
     10          1           0       -1.279157    1.091137    1.566072
     11          6           0       -2.894690    1.870681    0.307179
     12          1           0       -3.503156    1.565005   -0.540103
     13          1           0       -3.565777    2.127889    1.128744
     14          1           0       -2.372189    2.786830    0.025821
     15          6           0        2.743384    1.597641   -0.727355
     16          1           0        2.106437    1.975367   -1.525692
     17          1           0        2.783823    2.350066    0.063574
     18          1           0        3.758405    1.494529   -1.118027
     19          6           0        2.238877    0.285405   -0.193451
     20          6           0        3.067459   -0.300781    0.915757
     21          1           0        2.666927   -1.236603    1.296833
     22          1           0        4.090243   -0.479675    0.576547
     23          1           0        3.130262    0.401753    1.749683
     24          6           0        1.127193   -0.282546   -0.697587
     25          1           0        0.605606    0.257264   -1.482671
     26          6           0        0.485760   -1.563644   -0.253265
     27          1           0        0.097631   -2.094926   -1.125867
     28          1           0        1.215147   -2.230992    0.207752
 ---------------------------------------------------------------------

 The electronic state is 1-A.
 Alpha  occ. eigenvalues --  -11.22657 -11.22363 -11.21748 -11.21670 -11.21500
 Alpha  occ. eigenvalues --  -11.21497 -11.21446 -11.21331 -11.21284 -11.21036
 Alpha  occ. eigenvalues --   -1.10816  -1.08118  -1.01964  -0.97250  -0.93597
 Alpha  occ. eigenvalues --   -0.92320  -0.88045  -0.81481  -0.70820  -0.68868
 Alpha  occ. eigenvalues --   -0.64503  -0.61556  -0.61322  -0.58562  -0.57647
 Alpha  occ. eigenvalues --   -0.56815  -0.55131  -0.54445  -0.53424  -0.53049
 Alpha  occ. eigenvalues --   -0.52428  -0.51153  -0.50316  -0.49160  -0.47823
 Alpha  occ. eigenvalues --   -0.45859  -0.44503  -0.32351  -0.32071
 Alpha virt. eigenvalues --    0.18842   0.19294   0.22636   0.24633   0.26787
 Alpha virt. eigenvalues --    0.26963   0.27967   0.29128   0.30476   0.30672
 Alpha virt. eigenvalues --    0.31911   0.32313   0.33193   0.33626   0.34737

 Mulliken charges:
               1
     1  C   -0.216296
     2  H    0.109424
     3  H    0.117141
     4  C    0.020390
     5  C   -0.348111
     6  H    0.119998
     7  H    0.121290
     8  H    0.117122
     9  C   -0.149816
    10  H    0.117600
    11  C   -0.354592
    12  H    0.114701
    13  H    0.119909
    14  H    0.120733
    15  C   -0.341334
    16  H    0.119014
    17  H    0.114177
    18  H    0.114364
    19  C    0.020692
    20  C   -0.348918
    21  H    0.118719
    22  H    0.119142
    23  H    0.118517
    24  C   -0.145423
    25  H    0.119922
    26  C   -0.253301
    27  H    0.116169
    28  H    0.118766
 Sum of Mulliken charges =  -0.00000

 Dipole moment (field-independent basis, Debye):
    X=              0.1025    Y=             -0.0051    Z=              0.0166  Tot=              0.1039
 Quadrupole moment (field-independent basis, Debye-Ang):
   XX=            -64.6441   YY=            -64.2171   ZZ=            -65.5040
   XY=              0.3057   XZ=              2.4032   YZ=              0.0859

 Normal termination of Gaussian 16 at Fri Sep 17 22:13:20 2021.
