 Gaussian 16, Revision A.03,
 Gaussian 16:  EM64L-G16RevA.03 25-Dec-2016

 ---------------------
 #p opt mp2/6-31g(d,p)
 ---------------------

 -------------------------------------------------
 Conformer number 014. Energy MM = 27.220 kcal/mol
 -------------------------------------------------
 Symbolic Z-matrix:
 Charge =  0 Multiplicity = 1

 SCF Done:  E(RHF) =  -389.150153337     A.U. after   13 cycles
 E2 =    -0.1418359335D+01 EUMP2 =    -0.39056851267214D+03
 SCF Done:  E(RHF) =  -389.152074102     A.U. after   11 cycles
 E2 =    -0.1419040021D+01 EUMP2 =    -0.39057111412301D+03
 SCF Done:  E(RHF) =  -389.153284722     A.U. after   11 cycles
 E2 =    -0.1418417992D+01 EUMP2 =    -0.39057170271481D+03
 SCF Done:  E(RHF) =  -389.152948807     A.U. after   11 cycles
 E2 =    -0.1419292157D+01 EUMP2 =    -0.39057224096425D+03
 SCF Done:  E(RHF) =  -389.152687798     A.U. after   11 cycles
 E2 =    -0.1420022434D+01 EUMP2 =    -0.39057271023236D+03
 SCF Done:  E(RHF) =  -389.153464791     A.U. after   11 cycles
 E2 =    -0.1419547432D+01 EUMP2 =    -0.39057301222394D+03
 SCF Done:  E(RHF) =  -389.153072580     A.U. after   11 cycles
 E2 =    -0.1420101112D+01 EUMP2 =    -0.39057317369233D+03
 SCF Done:  E(RHF) =  -389.153253776     A.U. after   10 cycles
 E2 =    -0.1420007569D+01 EUMP2 =    -0.39057326134565D+03
 SCF Done:  E(RHF) =  -389.152697307     A.U. after   11 cycles
 E2 =    -0.1420771224D+01 EUMP2 =    -0.39057346853087D+03
 SCF Done:  E(RHF) =  -389.153481196     A.U. after   11 cycles
 E2 =    -0.1419905998D+01 EUMP2 =    -0.39057338719334D+03
 E2 =    -0.1420221682D+01 EUMP2 =    -0.39057363497921D+03
 E2 =    -0.1420351016D+01 EUMP2 =    -0.39057366680696D+03
 E2 =    -0.1420466601D+01 EUMP2 =    -0.39057370843991D+03
 E2 =    -0.1420332621D+01 EUMP2 =    -0.39057372486825D+03
 E2 =    -0.1420116210D+01 EUMP2 =    -0.39057375062994D+03
 SCF Done:  E(RHF) =  -389.153657407     A.U. after   10 cycles
 E2 =    -0.1420104418D+01 EUMP2 =    -0.39057376182548D+03
 SCF Done:  E(RHF) =  -389.153505939     A.U. after    9 cycles
 E2 =    -0.1420266360D+01 EUMP2 =    -0.39057377229814D+03
 SCF Done:  E(RHF) =  -389.153490473     A.U. after    8 cycles
 E2 =    -0.1420282257D+01 EUMP2 =    -0.39057377273014D+03
 SCF Done:  E(RHF) =  -389.153450440     A.U. after    8 cycles
 E2 =    -0.1420322772D+01 EUMP2 =    -0.39057377321228D+03
 SCF Done:  E(RHF) =  -389.153448066     A.U. after    7 cycles
 E2 =    -0.1420325247D+01 EUMP2 =    -0.39057377331373D+03
 SCF Done:  E(RHF) =  -389.153447304     A.U. after    6 cycles
 E2 =    -0.1420326106D+01 EUMP2 =    -0.39057377341008D+03
 SCF Done:  E(RHF) =  -389.153450332     A.U. after    7 cycles
 E2 =    -0.1420323177D+01 EUMP2 =    -0.39057377350947D+03
 SCF Done:  E(RHF) =  -389.153452485     A.U. after    7 cycles
 E2 =    -0.1420321085D+01 EUMP2 =    -0.39057377357049D+03
 SCF Done:  E(RHF) =  -389.153453559     A.U. after    6 cycles
 E2 =    -0.1420320053D+01 EUMP2 =    -0.39057377361141D+03
 SCF Done:  E(RHF) =  -389.153451211     A.U. after    6 cycles
 E2 =    -0.1420322418D+01 EUMP2 =    -0.39057377362846D+03
 Optimization completed.
    -- Stationary point found.

                         Standard orientation:
 ---------------------------------------------------------------------
 Center     Atomic      Atomic             Coordinates (Angstroms)
 Number     Number       Type             X           Y           Z
 ---------------------------------------------------------------------
      1          6           0        0.855832    1.785076   -0.166648
      2          1           0        1.568287    2.288981   -0.824754
      3          1           0        0.667048    2.461792    0.671547
      4          6           0        1.453315    0.491169    0.341757
      5          6           0        1.146773    0.147046    1.772566
      6          1           0        1.543575   -0.819598    2.073218
      7          1           0        1.566727    0.905136    2.437658
      8          1           0        0.068151    0.138261    1.931225
      9          6           0        2.189397   -0.264342   -0.495456
     10          1           0        2.343105    0.123257   -1.500416
     11          6           0        2.830833   -1.591424   -0.226547
     12          1           0        2.666948   -1.937613    0.790673
     13          1           0        2.439973   -2.352411   -0.904922
     14          1           0        3.908443   -1.541202   -0.392749
     15          6           0       -3.063046   -0.778877    0.797521
     16          1           0       -3.426017    0.038016    1.419659
     17          1           0       -3.907463   -1.179708    0.232124
     18          1           0       -2.712787   -1.579836    1.452747
     19          6           0       -1.966199   -0.326502   -0.127390
     20          6           0       -1.421239   -1.402931   -1.023967
     21          1           0       -0.603432   -1.059657   -1.650655
     22          1           0       -1.049982   -2.235375   -0.421999
     23          1           0       -2.210946   -1.802226   -1.664776
     24          6           0       -1.538376    0.950698   -0.110886
     25          1           0       -2.008051    1.622884    0.604075
     26          6           0       -0.456027    1.564929   -0.945954
     27          1           0       -0.237056    0.948988   -1.818613
     28          1           0       -0.804108    2.531261   -1.324009
 ---------------------------------------------------------------------

 The electronic state is 1-A.
 Alpha  occ. eigenvalues --  -11.22905 -11.22417 -11.21815 -11.21726 -11.21476
 Alpha  occ. eigenvalues --  -11.21353 -11.21281 -11.21253 -11.21241 -11.20944
 Alpha  occ. eigenvalues --   -1.10826  -1.08027  -1.01971  -0.97278  -0.93554
 Alpha  occ. eigenvalues --   -0.92408  -0.87489  -0.81946  -0.70430  -0.69260
 Alpha  occ. eigenvalues --   -0.63913  -0.62527  -0.59471  -0.59238  -0.58024
 Alpha  occ. eigenvalues --   -0.57119  -0.55205  -0.53892  -0.53053  -0.52843
 Alpha  occ. eigenvalues --   -0.52472  -0.51203  -0.50221  -0.49364  -0.47951
 Alpha  occ. eigenvalues --   -0.45451  -0.44722  -0.33173  -0.31264
 Alpha virt. eigenvalues --    0.18605   0.18963   0.22659   0.25754   0.25952
 Alpha virt. eigenvalues --    0.27103   0.28219   0.29766   0.29955   0.30981
 Alpha virt. eigenvalues --    0.31948   0.32551   0.32834   0.33437   0.34116

 Mulliken charges:
               1
     1  C   -0.234777
     2  H    0.122073
     3  H    0.110445
     4  C    0.023552
     5  C   -0.348223
     6  H    0.112037
     7  H    0.116270
     8  H    0.131428
     9  C   -0.154803
    10  H    0.110641
    11  C   -0.350337
    12  H    0.115613
    13  H    0.117552
    14  H    0.118940
    15  C   -0.343618
    16  H    0.117861
    17  H    0.116706
    18  H    0.115292
    19  C    0.029611
    20  C   -0.344023
    21  H    0.127128
    22  H    0.118347
    23  H    0.114738
    24  C   -0.163633
    25  H    0.114909
    26  C   -0.226125
    27  H    0.117737
    28  H    0.114660
 Sum of Mulliken charges =  -0.00000

 Dipole moment (field-independent basis, Debye):
    X=             -0.1610    Y=             -0.1826    Z=              0.0696  Tot=              0.2531
 Quadrupole moment (field-independent basis, Debye-Ang):
   XX=            -66.8077   YY=            -63.9420   ZZ=            -64.7087
   XY=              0.0093   XZ=             -1.4126   YZ=              0.2962

 Normal termination of Gaussian 16 at Fri Sep 17 22:52:51 2021.
