 Gaussian 16, Revision A.03,
 Gaussian 16:  EM64L-G16RevA.03 25-Dec-2016

 ---------------------
 #p opt mp2/6-31g(d,p)
 ---------------------

 -------------------------------------------------
 Conformer number 026. Energy MM = 30.027 kcal/mol
 -------------------------------------------------
 Symbolic Z-matrix:
 Charge =  0 Multiplicity = 1

 SCF Done:  E(RHF) =  -389.145169499     A.U. after   12 cycles
 E2 =    -0.1417862845D+01 EUMP2 =    -0.39056303234374D+03
 SCF Done:  E(RHF) =  -389.147948502     A.U. after   11 cycles
 E2 =    -0.1417112965D+01 EUMP2 =    -0.39056506146634D+03
 SCF Done:  E(RHF) =  -389.148723004     A.U. after   11 cycles
 E2 =    -0.1417201765D+01 EUMP2 =    -0.39056592476918D+03
 SCF Done:  E(RHF) =  -389.150620321     A.U. after   13 cycles
 E2 =    -0.1417461325D+01 EUMP2 =    -0.39056808164593D+03
 SCF Done:  E(RHF) =  -389.152085164     A.U. after   13 cycles
 E2 =    -0.1417701401D+01 EUMP2 =    -0.39056978656454D+03
 SCF Done:  E(RHF) =  -389.153541526     A.U. after   11 cycles
 E2 =    -0.1417704008D+01 EUMP2 =    -0.39057124553445D+03
 SCF Done:  E(RHF) =  -389.155930308     A.U. after   11 cycles
 E2 =    -0.1416891764D+01 EUMP2 =    -0.39057282207200D+03
 SCF Done:  E(RHF) =  -389.156603442     A.U. after   11 cycles
 E2 =    -0.1416605211D+01 EUMP2 =    -0.39057320865310D+03
 SCF Done:  E(RHF) =  -389.156838709     A.U. after   10 cycles
 E2 =    -0.1416458842D+01 EUMP2 =    -0.39057329755085D+03
 SCF Done:  E(RHF) =  -389.156881483     A.U. after   10 cycles
 E2 =    -0.1416444706D+01 EUMP2 =    -0.39057332618921D+03
 SCF Done:  E(RHF) =  -389.156876177     A.U. after    9 cycles
 E2 =    -0.1416459623D+01 EUMP2 =    -0.39057333580061D+03
 SCF Done:  E(RHF) =  -389.156870497     A.U. after    8 cycles
 E2 =    -0.1416470035D+01 EUMP2 =    -0.39057334053161D+03
 SCF Done:  E(RHF) =  -389.156861005     A.U. after    8 cycles
 E2 =    -0.1416484347D+01 EUMP2 =    -0.39057334535273D+03
 SCF Done:  E(RHF) =  -389.156854192     A.U. after    8 cycles
 E2 =    -0.1416492834D+01 EUMP2 =    -0.39057334702567D+03
 SCF Done:  E(RHF) =  -389.156852009     A.U. after    8 cycles
 E2 =    -0.1416495632D+01 EUMP2 =    -0.39057334764092D+03
 SCF Done:  E(RHF) =  -389.156841998     A.U. after    8 cycles
 E2 =    -0.1416505994D+01 EUMP2 =    -0.39057334799231D+03
 SCF Done:  E(RHF) =  -389.156835026     A.U. after    8 cycles
 E2 =    -0.1416513184D+01 EUMP2 =    -0.39057334820975D+03
 SCF Done:  E(RHF) =  -389.156826903     A.U. after    8 cycles
 E2 =    -0.1416521464D+01 EUMP2 =    -0.39057334836638D+03
 SCF Done:  E(RHF) =  -389.156823801     A.U. after    7 cycles
 E2 =    -0.1416524608D+01 EUMP2 =    -0.39057334840925D+03
 SCF Done:  E(RHF) =  -389.156822612     A.U. after    7 cycles
 E2 =    -0.1416525818D+01 EUMP2 =    -0.39057334843034D+03
 Optimization completed.
    -- Stationary point found.

                         Standard orientation:
 ---------------------------------------------------------------------
 Center     Atomic      Atomic             Coordinates (Angstroms)
 Number     Number       Type             X           Y           Z
 ---------------------------------------------------------------------
      1          6           0        0.558406   -0.358800    0.495129
      2          1           0        0.130961    0.199280    1.335257
      3          1           0        0.574512   -1.410797    0.791014
      4          6           0        1.962068    0.116229    0.222796
      5          6           0        2.100009    1.588106   -0.064542
      6          1           0        3.126539    1.936695    0.016621
      7          1           0        1.743756    1.832920   -1.066979
      8          1           0        1.496099    2.164160    0.639292
      9          6           0        2.983856   -0.760546    0.218949
     10          1           0        2.746425   -1.796707    0.444402
     11          6           0        4.430375   -0.487593   -0.061046
     12          1           0        4.621160    0.554325   -0.304955
     13          1           0        5.049514   -0.752642    0.797952
     14          1           0        4.777493   -1.092157   -0.900884
     15          6           0       -4.131829   -0.819132    0.221687
     16          1           0       -4.029525   -1.891443    0.062220
     17          1           0       -4.461132   -0.655434    1.250262
     18          1           0       -4.928954   -0.450896   -0.428177
     19          6           0       -2.842374   -0.094557   -0.050373
     20          6           0       -2.906723    1.395314    0.142083
     21          1           0       -1.950861    1.886604   -0.021033
     22          1           0       -3.638979    1.838098   -0.536805
     23          1           0       -3.235391    1.629196    1.156925
     24          6           0       -1.741534   -0.765597   -0.438169
     25          1           0       -1.818588   -1.846925   -0.520308
     26          6           0       -0.381860   -0.195250   -0.713085
     27          1           0        0.064090   -0.710971   -1.568034
     28          1           0       -0.449492    0.857647   -0.987339
 ---------------------------------------------------------------------

 The electronic state is 1-A.
 Alpha  occ. eigenvalues --  -11.22942 -11.22511 -11.21700 -11.21672 -11.21623
 Alpha  occ. eigenvalues --  -11.21559 -11.21548 -11.21481 -11.21394 -11.21303
 Alpha  occ. eigenvalues --   -1.10735  -1.08460  -1.02106  -0.97425  -0.93781
 Alpha  occ. eigenvalues --   -0.92410  -0.87797  -0.81730  -0.70596  -0.69538
 Alpha  occ. eigenvalues --   -0.64148  -0.63199  -0.59865  -0.58878  -0.58400
 Alpha  occ. eigenvalues --   -0.56978  -0.55031  -0.54497  -0.53241  -0.52889
 Alpha  occ. eigenvalues --   -0.51756  -0.51256  -0.50605  -0.49958  -0.47402
 Alpha  occ. eigenvalues --   -0.46411  -0.44635  -0.33302  -0.31579
 Alpha virt. eigenvalues --    0.18278   0.19823   0.22639   0.24479   0.26352
 Alpha virt. eigenvalues --    0.26979   0.28135   0.29580   0.30260   0.30764
 Alpha virt. eigenvalues --    0.31180   0.32645   0.32687   0.33226   0.34299

 Mulliken charges:
               1
     1  C   -0.222858
     2  H    0.114798
     3  H    0.116854
     4  C    0.024596
     5  C   -0.351538
     6  H    0.121017
     7  H    0.125105
     8  H    0.116258
     9  C   -0.158628
    10  H    0.115762
    11  C   -0.353548
    12  H    0.115594
    13  H    0.120368
    14  H    0.120385
    15  C   -0.342542
    16  H    0.119179
    17  H    0.115569
    18  H    0.115885
    19  C    0.026481
    20  C   -0.348889
    21  H    0.118792
    22  H    0.120502
    23  H    0.119470
    24  C   -0.162051
    25  H    0.117291
    26  C   -0.242778
    27  H    0.122073
    28  H    0.116854
 Sum of Mulliken charges =  -0.00000

 Dipole moment (field-independent basis, Debye):
    X=             -0.1804    Y=              0.3344    Z=              0.0137  Tot=              0.3802
 Quadrupole moment (field-independent basis, Debye-Ang):
   XX=            -63.3690   YY=            -63.3487   ZZ=            -67.5455
   XY=             -0.5271   XZ=             -1.2943   YZ=             -0.0439

 Normal termination of Gaussian 16 at Fri Sep 17 22:04:45 2021.
