 Gaussian 16, Revision A.03,
 Gaussian 16:  EM64L-G16RevA.03 25-Dec-2016

 ---------------------
 #p opt mp2/6-31g(d,p)
 ---------------------

 -------------------------------------------------
 Conformer number 031. Energy MM = 27.788 kcal/mol
 -------------------------------------------------
 Symbolic Z-matrix:
 Charge =  0 Multiplicity = 1

 SCF Done:  E(RHF) =  -389.148831578     A.U. after   12 cycles
 E2 =    -0.1418024895D+01 EUMP2 =    -0.39056685647239D+03
 SCF Done:  E(RHF) =  -389.151238262     A.U. after   12 cycles
 E2 =    -0.1418907444D+01 EUMP2 =    -0.39057014570573D+03
 SCF Done:  E(RHF) =  -389.152699944     A.U. after   12 cycles
 E2 =    -0.1417402767D+01 EUMP2 =    -0.39057010271066D+03
 SCF Done:  E(RHF) =  -389.152811391     A.U. after   11 cycles
 E2 =    -0.1417937987D+01 EUMP2 =    -0.39057074937720D+03
 SCF Done:  E(RHF) =  -389.152810910     A.U. after   10 cycles
 E2 =    -0.1418250396D+01 EUMP2 =    -0.39057106130611D+03
 SCF Done:  E(RHF) =  -389.152890755     A.U. after   11 cycles
 E2 =    -0.1418494137D+01 EUMP2 =    -0.39057138489189D+03
 SCF Done:  E(RHF) =  -389.153089270     A.U. after   10 cycles
 E2 =    -0.1418459962D+01 EUMP2 =    -0.39057154923254D+03
 SCF Done:  E(RHF) =  -389.153486025     A.U. after   10 cycles
 E2 =    -0.1418225188D+01 EUMP2 =    -0.39057171121284D+03
 SCF Done:  E(RHF) =  -389.153785831     A.U. after   10 cycles
 E2 =    -0.1418036289D+01 EUMP2 =    -0.39057182211948D+03
 SCF Done:  E(RHF) =  -389.153825062     A.U. after    9 cycles
 E2 =    -0.1418013102D+01 EUMP2 =    -0.39057183816342D+03
 E2 =    -0.1418093374D+01 EUMP2 =    -0.39057189001735D+03
 E2 =    -0.1418159487D+01 EUMP2 =    -0.39057189908197D+03
 E2 =    -0.1418191287D+01 EUMP2 =    -0.39057193493561D+03
 E2 =    -0.1418675982D+01 EUMP2 =    -0.39057201798871D+03
 SCF Done:  E(RHF) =  -389.153624053     A.U. after   11 cycles
 E2 =    -0.1418392901D+01 EUMP2 =    -0.39057201695424D+03
 SCF Done:  E(RHF) =  -389.153088945     A.U. after   11 cycles
 E2 =    -0.1418947112D+01 EUMP2 =    -0.39057203605694D+03
 SCF Done:  E(RHF) =  -389.153616751     A.U. after   11 cycles
 E2 =    -0.1418450049D+01 EUMP2 =    -0.39057206680006D+03
 SCF Done:  E(RHF) =  -389.153567655     A.U. after   10 cycles
 E2 =    -0.1418521943D+01 EUMP2 =    -0.39057208959754D+03
 SCF Done:  E(RHF) =  -389.153519090     A.U. after    9 cycles
 E2 =    -0.1418575764D+01 EUMP2 =    -0.39057209485374D+03
 SCF Done:  E(RHF) =  -389.153484642     A.U. after    8 cycles
 E2 =    -0.1418611605D+01 EUMP2 =    -0.39057209624665D+03
 SCF Done:  E(RHF) =  -389.153489171     A.U. after    8 cycles
 E2 =    -0.1418607183D+01 EUMP2 =    -0.39057209635320D+03
 SCF Done:  E(RHF) =  -389.153473545     A.U. after    8 cycles
 E2 =    -0.1418623077D+01 EUMP2 =    -0.39057209662232D+03
 SCF Done:  E(RHF) =  -389.153479909     A.U. after    7 cycles
 E2 =    -0.1418616775D+01 EUMP2 =    -0.39057209668375D+03
 SCF Done:  E(RHF) =  -389.153476037     A.U. after    7 cycles
 E2 =    -0.1418620666D+01 EUMP2 =    -0.39057209670309D+03
 Optimization completed.
    -- Stationary point found.

                         Standard orientation:
 ---------------------------------------------------------------------
 Center     Atomic      Atomic             Coordinates (Angstroms)
 Number     Number       Type             X           Y           Z
 ---------------------------------------------------------------------
      1          6           0        1.124525   -1.566106   -0.233030
      2          1           0        1.139678   -2.156991    0.690786
      3          1           0        1.718375   -2.143481   -0.951251
      4          6           0        1.843543   -0.261959    0.027217
      5          6           0        3.206638   -0.455677    0.635596
      6          1           0        3.754317    0.473126    0.768592
      7          1           0        3.121148   -0.938700    1.611502
      8          1           0        3.810873   -1.114996    0.008618
      9          6           0        1.308205    0.932651   -0.283281
     10          1           0        0.310398    0.943478   -0.703075
     11          6           0        1.917074    2.289900   -0.097017
     12          1           0        2.919117    2.254831    0.322277
     13          1           0        1.972827    2.818866   -1.050258
     14          1           0        1.299161    2.897794    0.566632
     15          6           0       -3.077161    0.401458    1.315674
     16          1           0       -2.806829   -0.137366    2.222507
     17          1           0       -2.974056    1.471588    1.510040
     18          1           0       -4.134059    0.217469    1.109729
     19          6           0       -2.222255   -0.014231    0.150079
     20          6           0       -2.537031    0.693988   -1.138171
     21          1           0       -1.916279    0.367005   -1.968260
     22          1           0       -3.580501    0.529429   -1.415802
     23          1           0       -2.408552    1.772587   -1.019743
     24          6           0       -1.260040   -0.942993    0.300972
     25          1           0       -1.140849   -1.378635    1.290975
     26          6           0       -0.319809   -1.487702   -0.734175
     27          1           0       -0.630842   -2.503742   -0.999536
     28          1           0       -0.356062   -0.908250   -1.656925
 ---------------------------------------------------------------------

 The electronic state is 1-A.
 Alpha  occ. eigenvalues --  -11.22686 -11.22358 -11.21942 -11.21829 -11.21617
 Alpha  occ. eigenvalues --  -11.21343 -11.21320 -11.21276 -11.21210 -11.21081
 Alpha  occ. eigenvalues --   -1.10786  -1.08087  -1.02024  -0.97716  -0.93690
 Alpha  occ. eigenvalues --   -0.91841  -0.87599  -0.82525  -0.70620  -0.68858
 Alpha  occ. eigenvalues --   -0.64364  -0.62000  -0.59841  -0.59305  -0.58218
 Alpha  occ. eigenvalues --   -0.57455  -0.55135  -0.53680  -0.53149  -0.52864
 Alpha  occ. eigenvalues --   -0.52489  -0.51416  -0.50333  -0.49626  -0.46907
 Alpha  occ. eigenvalues --   -0.45822  -0.45195  -0.33141  -0.31217
 Alpha virt. eigenvalues --    0.18829   0.19896   0.23128   0.24462   0.25631
 Alpha virt. eigenvalues --    0.26760   0.28970   0.29284   0.30687   0.30911
 Alpha virt. eigenvalues --    0.32103   0.32488   0.33232   0.33802   0.34586

 Mulliken charges:
               1
     1  C   -0.214539
     2  H    0.108911
     3  H    0.117465
     4  C    0.010877
     5  C   -0.346960
     6  H    0.117786
     7  H    0.118833
     8  H    0.116427
     9  C   -0.143357
    10  H    0.124919
    11  C   -0.353944
    12  H    0.114039
    13  H    0.117494
    14  H    0.119852
    15  C   -0.341125
    16  H    0.118779
    17  H    0.114871
    18  H    0.114196
    19  C    0.012679
    20  C   -0.352836
    21  H    0.119031
    22  H    0.121466
    23  H    0.118712
    24  C   -0.135083
    25  H    0.116043
    26  C   -0.257840
    27  H    0.125552
    28  H    0.117750
 Sum of Mulliken charges =  -0.00000

 Dipole moment (field-independent basis, Debye):
    X=             -0.0600    Y=             -0.0055    Z=             -0.0692  Tot=              0.0918
 Quadrupole moment (field-independent basis, Debye-Ang):
   XX=            -64.4237   YY=            -64.2834   ZZ=            -65.4193
   XY=             -1.5940   XZ=              0.7441   YZ=             -0.4489

 Normal termination of Gaussian 16 at Fri Sep 17 22:33:21 2021.
