 Gaussian 16, Revision A.03,
 Gaussian 16:  EM64L-G16RevA.03 25-Dec-2016

 ---------------------
 #p opt mp2/6-31g(d,p)
 ---------------------

 -------------------------------------------------
 Conformer number 039. Energy MM = 27.337 kcal/mol
 -------------------------------------------------
 Symbolic Z-matrix:
 Charge =  0 Multiplicity = 1

 SCF Done:  E(RHF) =  -389.148609686     A.U. after   12 cycles
 E2 =    -0.1418250606D+01 EUMP2 =    -0.39056686029170D+03
 SCF Done:  E(RHF) =  -389.151320238     A.U. after   11 cycles
 E2 =    -0.1418276981D+01 EUMP2 =    -0.39056959721924D+03
 SCF Done:  E(RHF) =  -389.151817143     A.U. after   10 cycles
 E2 =    -0.1418031109D+01 EUMP2 =    -0.39056984825173D+03
 SCF Done:  E(RHF) =  -389.151264193     A.U. after   10 cycles
 E2 =    -0.1418653131D+01 EUMP2 =    -0.39056991732313D+03
 SCF Done:  E(RHF) =  -389.151925238     A.U. after   10 cycles
 E2 =    -0.1418308023D+01 EUMP2 =    -0.39057023326072D+03
 SCF Done:  E(RHF) =  -389.152745213     A.U. after   10 cycles
 E2 =    -0.1417974851D+01 EUMP2 =    -0.39057072006399D+03
 SCF Done:  E(RHF) =  -389.153125012     A.U. after   10 cycles
 E2 =    -0.1417808682D+01 EUMP2 =    -0.39057093369415D+03
 SCF Done:  E(RHF) =  -389.153173112     A.U. after   10 cycles
 E2 =    -0.1417848806D+01 EUMP2 =    -0.39057102191819D+03
 SCF Done:  E(RHF) =  -389.153190730     A.U. after   10 cycles
 E2 =    -0.1417871243D+01 EUMP2 =    -0.39057106197364D+03
 SCF Done:  E(RHF) =  -389.153088719     A.U. after   10 cycles
 E2 =    -0.1417956995D+01 EUMP2 =    -0.39057104571382D+03
 E2 =    -0.1417961536D+01 EUMP2 =    -0.39057109949371D+03
 E2 =    -0.1417993771D+01 EUMP2 =    -0.39057111279047D+03
 E2 =    -0.1417982248D+01 EUMP2 =    -0.39057111454046D+03
 E2 =    -0.1417992632D+01 EUMP2 =    -0.39057111474505D+03
 E2 =    -0.1417997719D+01 EUMP2 =    -0.39057112037307D+03
 E2 =    -0.1418021401D+01 EUMP2 =    -0.39057112236926D+03
 SCF Done:  E(RHF) =  -389.153074803     A.U. after    9 cycles
 E2 =    -0.1418049495D+01 EUMP2 =    -0.39057112429820D+03
 SCF Done:  E(RHF) =  -389.153048140     A.U. after    8 cycles
 E2 =    -0.1418077551D+01 EUMP2 =    -0.39057112569091D+03
 SCF Done:  E(RHF) =  -389.153031840     A.U. after    8 cycles
 E2 =    -0.1418094262D+01 EUMP2 =    -0.39057112610184D+03
 SCF Done:  E(RHF) =  -389.153026923     A.U. after    8 cycles
 E2 =    -0.1418099412D+01 EUMP2 =    -0.39057112633536D+03
 SCF Done:  E(RHF) =  -389.153019852     A.U. after    8 cycles
 E2 =    -0.1418106659D+01 EUMP2 =    -0.39057112651095D+03
 SCF Done:  E(RHF) =  -389.153018195     A.U. after    7 cycles
 E2 =    -0.1418108351D+01 EUMP2 =    -0.39057112654516D+03
 SCF Done:  E(RHF) =  -389.153017595     A.U. after    7 cycles
 E2 =    -0.1418109058D+01 EUMP2 =    -0.39057112665248D+03
 SCF Done:  E(RHF) =  -389.153009859     A.U. after    8 cycles
 E2 =    -0.1418116913D+01 EUMP2 =    -0.39057112677209D+03
 SCF Done:  E(RHF) =  -389.153006486     A.U. after    7 cycles
 E2 =    -0.1418120350D+01 EUMP2 =    -0.39057112683592D+03
 SCF Done:  E(RHF) =  -389.153004235     A.U. after    6 cycles
 E2 =    -0.1418122603D+01 EUMP2 =    -0.39057112683830D+03
 Optimization completed.
    -- Stationary point found.

                         Standard orientation:
 ---------------------------------------------------------------------
 Center     Atomic      Atomic             Coordinates (Angstroms)
 Number     Number       Type             X           Y           Z
 ---------------------------------------------------------------------
      1          6           0        0.581787   -1.334628   -0.379026
      2          1           0        0.044502   -1.715894    0.496066
      3          1           0        0.985651   -2.219543   -0.886383
      4          6           0        1.743167   -0.498576    0.111789
      5          6           0        2.481034   -1.136493    1.257972
      6          1           0        3.398299   -0.617897    1.522857
      7          1           0        1.844496   -1.176160    2.144631
      8          1           0        2.740074   -2.167512    1.007797
      9          6           0        2.083462    0.673351   -0.454302
     10          1           0        1.482945    1.027346   -1.284570
     11          6           0        3.216988    1.581023   -0.080731
     12          1           0        3.781886    1.224011    0.776177
     13          1           0        3.910863    1.695615   -0.915698
     14          1           0        2.843907    2.578003    0.160251
     15          6           0       -2.982633    1.521325    0.746994
     16          1           0       -2.392694    2.424583    0.599126
     17          1           0       -3.986657    1.699530    0.354993
     18          1           0       -3.087678    1.353105    1.821234
     19          6           0       -2.349346    0.333106    0.077216
     20          6           0       -3.107914   -0.955212    0.237599
     21          1           0       -2.624590   -1.797102   -0.251464
     22          1           0       -3.216414   -1.199704    1.296564
     23          1           0       -4.117310   -0.857568   -0.168329
     24          6           0       -1.190850    0.457280   -0.597730
     25          1           0       -0.733634    1.440778   -0.620257
     26          6           0       -0.441736   -0.646431   -1.290046
     27          1           0       -1.135354   -1.406483   -1.653021
     28          1           0        0.057956   -0.253575   -2.178388
 ---------------------------------------------------------------------

 The electronic state is 1-A.
 Alpha  occ. eigenvalues --  -11.22664 -11.22647 -11.21912 -11.21714 -11.21527
 Alpha  occ. eigenvalues --  -11.21395 -11.21386 -11.21328 -11.21293 -11.21025
 Alpha  occ. eigenvalues --   -1.10790  -1.08154  -1.01820  -0.97834  -0.93623
 Alpha  occ. eigenvalues --   -0.91831  -0.87676  -0.82717  -0.70143  -0.68967
 Alpha  occ. eigenvalues --   -0.64225  -0.61947  -0.61075  -0.58531  -0.57954
 Alpha  occ. eigenvalues --   -0.57560  -0.55329  -0.53992  -0.53090  -0.52760
 Alpha  occ. eigenvalues --   -0.52457  -0.51400  -0.50568  -0.49406  -0.47113
 Alpha  occ. eigenvalues --   -0.46127  -0.44594  -0.32470  -0.32041
 Alpha virt. eigenvalues --    0.18743   0.19400   0.23222   0.24724   0.25706
 Alpha virt. eigenvalues --    0.26453   0.28547   0.29750   0.30575   0.31011
 Alpha virt. eigenvalues --    0.31979   0.32367   0.33238   0.33899   0.34472

 Mulliken charges:
               1
     1  C   -0.200772
     2  H    0.113888
     3  H    0.116582
     4  C    0.018409
     5  C   -0.350028
     6  H    0.117726
     7  H    0.123064
     8  H    0.116840
     9  C   -0.154680
    10  H    0.114292
    11  C   -0.352233
    12  H    0.115404
    13  H    0.119342
    14  H    0.118847
    15  C   -0.341364
    16  H    0.119012
    17  H    0.114362
    18  H    0.114540
    19  C    0.021899
    20  C   -0.349442
    21  H    0.118517
    22  H    0.119314
    23  H    0.119043
    24  C   -0.147391
    25  H    0.120384
    26  C   -0.265343
    27  H    0.120522
    28  H    0.119264
 Sum of Mulliken charges =  -0.00000

 Dipole moment (field-independent basis, Debye):
    X=             -0.1080    Y=             -0.2847    Z=              0.2341  Tot=              0.3841
 Quadrupole moment (field-independent basis, Debye-Ang):
   XX=            -64.2692   YY=            -64.0249   ZZ=            -65.7839
   XY=              0.9126   XZ=             -0.3587   YZ=             -0.3841

 Normal termination of Gaussian 16 at Fri Sep 17 22:41:22 2021.
