 Gaussian 16, Revision A.03,
 Gaussian 16:  EM64L-G16RevA.03 25-Dec-2016

 ---------------------
 #p opt mp2/6-31g(d,p)
 ---------------------

 -------------------------------------------------
 Conformer number 013. Energy MM = 27.094 kcal/mol
 -------------------------------------------------
 Symbolic Z-matrix:
 Charge =  0 Multiplicity = 1

 SCF Done:  E(RHF) =  -389.149517205     A.U. after   13 cycles
 E2 =    -0.1418133772D+01 EUMP2 =    -0.39056765097659D+03
 SCF Done:  E(RHF) =  -389.152064576     A.U. after   11 cycles
 E2 =    -0.1418436019D+01 EUMP2 =    -0.39057050059408D+03
 SCF Done:  E(RHF) =  -389.152796098     A.U. after   11 cycles
 E2 =    -0.1418551278D+01 EUMP2 =    -0.39057134737602D+03
 SCF Done:  E(RHF) =  -389.151679096     A.U. after   13 cycles
 E2 =    -0.1420239331D+01 EUMP2 =    -0.39057191842710D+03
 SCF Done:  E(RHF) =  -389.152868828     A.U. after   11 cycles
 E2 =    -0.1419821394D+01 EUMP2 =    -0.39057269022190D+03
 SCF Done:  E(RHF) =  -389.152061172     A.U. after   11 cycles
 E2 =    -0.1421070871D+01 EUMP2 =    -0.39057313204225D+03
 SCF Done:  E(RHF) =  -389.153338275     A.U. after   11 cycles
 E2 =    -0.1419988809D+01 EUMP2 =    -0.39057332708384D+03
 SCF Done:  E(RHF) =  -389.153043310     A.U. after   10 cycles
 E2 =    -0.1420477776D+01 EUMP2 =    -0.39057352108601D+03
 SCF Done:  E(RHF) =  -389.153268079     A.U. after   10 cycles
 E2 =    -0.1420456571D+01 EUMP2 =    -0.39057372465017D+03
 SCF Done:  E(RHF) =  -389.153339513     A.U. after    9 cycles
 E2 =    -0.1420421990D+01 EUMP2 =    -0.39057376150270D+03
 SCF Done:  E(RHF) =  -389.153431616     A.U. after    9 cycles
 E2 =    -0.1420338681D+01 EUMP2 =    -0.39057377029662D+03
 SCF Done:  E(RHF) =  -389.153453026     A.U. after    8 cycles
 E2 =    -0.1420319399D+01 EUMP2 =    -0.39057377242495D+03
 SCF Done:  E(RHF) =  -389.153465148     A.U. after    8 cycles
 E2 =    -0.1420307796D+01 EUMP2 =    -0.39057377294488D+03
 SCF Done:  E(RHF) =  -389.153465331     A.U. after    8 cycles
 E2 =    -0.1420307934D+01 EUMP2 =    -0.39057377326507D+03
 SCF Done:  E(RHF) =  -389.153461786     A.U. after    7 cycles
 E2 =    -0.1420311622D+01 EUMP2 =    -0.39057377340736D+03
 SCF Done:  E(RHF) =  -389.153452906     A.U. after    7 cycles
 E2 =    -0.1420320643D+01 EUMP2 =    -0.39057377354881D+03
 SCF Done:  E(RHF) =  -389.153446143     A.U. after    7 cycles
 E2 =    -0.1420327453D+01 EUMP2 =    -0.39057377359667D+03
 SCF Done:  E(RHF) =  -389.153445823     A.U. after    7 cycles
 E2 =    -0.1420327792D+01 EUMP2 =    -0.39057377361507D+03
 Optimization completed.
    -- Stationary point found.

                         Standard orientation:
 ---------------------------------------------------------------------
 Center     Atomic      Atomic             Coordinates (Angstroms)
 Number     Number       Type             X           Y           Z
 ---------------------------------------------------------------------
      1          6           0       -0.855826    1.785267   -0.166492
      2          1           0       -0.667132    2.461954    0.671745
      3          1           0       -1.568386    2.289099   -0.824541
      4          6           0       -1.453069    0.491229    0.341842
      5          6           0       -1.146473    0.146974    1.772618
      6          1           0       -1.543388   -0.819649    2.073194
      7          1           0       -0.067840    0.137985    1.931183
      8          1           0       -1.566242    0.905050    2.437836
      9          6           0       -2.188998   -0.264364   -0.495431
     10          1           0       -2.342695    0.123224   -1.500396
     11          6           0       -2.830069   -1.591652   -0.226650
     12          1           0       -2.668117   -1.936763    0.791245
     13          1           0       -3.907350   -1.542288   -0.395169
     14          1           0       -2.437279   -2.353029   -0.903483
     15          6           0        3.062424   -0.779306    0.797472
     16          1           0        3.425292    0.037327    1.420009
     17          1           0        2.711955   -1.580490    1.452311
     18          1           0        3.906947   -1.179978    0.232126
     19          6           0        1.965818   -0.326511   -0.127536
     20          6           0        1.420596   -1.402775   -1.024150
     21          1           0        0.604029   -1.058867   -1.652104
     22          1           0        2.210619   -1.803415   -1.663719
     23          1           0        1.047526   -2.234403   -0.422170
     24          6           0        1.538320    0.950798   -0.110868
     25          1           0        2.008117    1.622740    0.604237
     26          6           0        0.456057    1.565349   -0.945816
     27          1           0        0.804162    2.531783   -1.323580
     28          1           0        0.237108    0.949654   -1.818655
 ---------------------------------------------------------------------

 The electronic state is 1-A.
 Alpha  occ. eigenvalues --  -11.22905 -11.22417 -11.21815 -11.21726 -11.21476
 Alpha  occ. eigenvalues --  -11.21353 -11.21281 -11.21253 -11.21241 -11.20944
 Alpha  occ. eigenvalues --   -1.10826  -1.08027  -1.01971  -0.97278  -0.93554
 Alpha  occ. eigenvalues --   -0.92408  -0.87489  -0.81946  -0.70430  -0.69259
 Alpha  occ. eigenvalues --   -0.63913  -0.62528  -0.59471  -0.59239  -0.58025
 Alpha  occ. eigenvalues --   -0.57118  -0.55206  -0.53892  -0.53053  -0.52844
 Alpha  occ. eigenvalues --   -0.52471  -0.51203  -0.50221  -0.49365  -0.47950
 Alpha  occ. eigenvalues --   -0.45451  -0.44722  -0.33172  -0.31265
 Alpha virt. eigenvalues --    0.18605   0.18963   0.22657   0.25753   0.25951
 Alpha virt. eigenvalues --    0.27100   0.28218   0.29767   0.29949   0.30980
 Alpha virt. eigenvalues --    0.31951   0.32553   0.32839   0.33437   0.34120

 Mulliken charges:
               1
     1  C   -0.234768
     2  H    0.110444
     3  H    0.122077
     4  C    0.023539
     5  C   -0.348217
     6  H    0.112033
     7  H    0.131431
     8  H    0.116261
     9  C   -0.154787
    10  H    0.110636
    11  C   -0.350345
    12  H    0.115615
    13  H    0.118918
    14  H    0.117572
    15  C   -0.343616
    16  H    0.117859
    17  H    0.115286
    18  H    0.116711
    19  C    0.029616
    20  C   -0.343983
    21  H    0.127092
    22  H    0.114706
    23  H    0.118390
    24  C   -0.163649
    25  H    0.114915
    26  C   -0.226118
    27  H    0.114655
    28  H    0.117729
 Sum of Mulliken charges =  -0.00000

 Dipole moment (field-independent basis, Debye):
    X=              0.1610    Y=             -0.1828    Z=              0.0696  Tot=              0.2533
 Quadrupole moment (field-independent basis, Debye-Ang):
   XX=            -66.8104   YY=            -63.9416   ZZ=            -64.7086
   XY=             -0.0093   XZ=              1.4135   YZ=              0.2963

 Normal termination of Gaussian 16 at Fri Sep 17 22:13:06 2021.
