 Gaussian 16, Revision A.03,
 Gaussian 16:  EM64L-G16RevA.03 25-Dec-2016

 ---------------------
 #p opt mp2/6-31g(d,p)
 ---------------------

 -------------------------------------------------
 Conformer number 033. Energy MM = 28.138 kcal/mol
 -------------------------------------------------
 Symbolic Z-matrix:
 Charge =  0 Multiplicity = 1

 SCF Done:  E(RHF) =  -389.147771067     A.U. after   12 cycles
 E2 =    -0.1419114180D+01 EUMP2 =    -0.39056688524706D+03
 SCF Done:  E(RHF) =  -389.151581364     A.U. after   13 cycles
 E2 =    -0.1418974124D+01 EUMP2 =    -0.39057055548844D+03
 SCF Done:  E(RHF) =  -389.152777415     A.U. after   11 cycles
 E2 =    -0.1417722590D+01 EUMP2 =    -0.39057050000476D+03
 SCF Done:  E(RHF) =  -389.152649648     A.U. after   11 cycles
 E2 =    -0.1418484664D+01 EUMP2 =    -0.39057113431204D+03
 SCF Done:  E(RHF) =  -389.152224651     A.U. after   11 cycles
 E2 =    -0.1419259892D+01 EUMP2 =    -0.39057148454291D+03
 SCF Done:  E(RHF) =  -389.153402613     A.U. after   10 cycles
 E2 =    -0.1418514717D+01 EUMP2 =    -0.39057191732952D+03
 SCF Done:  E(RHF) =  -389.153707291     A.U. after   10 cycles
 E2 =    -0.1418311011D+01 EUMP2 =    -0.39057201830171D+03
 SCF Done:  E(RHF) =  -389.153588065     A.U. after    9 cycles
 E2 =    -0.1418470730D+01 EUMP2 =    -0.39057205879504D+03
 SCF Done:  E(RHF) =  -389.153584452     A.U. after    9 cycles
 E2 =    -0.1418492161D+01 EUMP2 =    -0.39057207661375D+03
 SCF Done:  E(RHF) =  -389.153481254     A.U. after   10 cycles
 E2 =    -0.1418607640D+01 EUMP2 =    -0.39057208889328D+03
 SCF Done:  E(RHF) =  -389.153465494     A.U. after    9 cycles
 E2 =    -0.1418627398D+01 EUMP2 =    -0.39057209289195D+03
 SCF Done:  E(RHF) =  -389.153467010     A.U. after    8 cycles
 E2 =    -0.1418627857D+01 EUMP2 =    -0.39057209486723D+03
 SCF Done:  E(RHF) =  -389.153472109     A.U. after    8 cycles
 E2 =    -0.1418624091D+01 EUMP2 =    -0.39057209620009D+03
 SCF Done:  E(RHF) =  -389.153481433     A.U. after    8 cycles
 E2 =    -0.1418615041D+01 EUMP2 =    -0.39057209647385D+03
 SCF Done:  E(RHF) =  -389.153482764     A.U. after    7 cycles
 E2 =    -0.1418613764D+01 EUMP2 =    -0.39057209652815D+03
 SCF Done:  E(RHF) =  -389.153480009     A.U. after    7 cycles
 E2 =    -0.1418616614D+01 EUMP2 =    -0.39057209662336D+03
 SCF Done:  E(RHF) =  -389.153476236     A.U. after    6 cycles
 E2 =    -0.1418620423D+01 EUMP2 =    -0.39057209665943D+03
 SCF Done:  E(RHF) =  -389.153474517     A.U. after    6 cycles
 E2 =    -0.1418622172D+01 EUMP2 =    -0.39057209668836D+03
 Optimization completed.
    -- Stationary point found.

                         Standard orientation:
 ---------------------------------------------------------------------
 Center     Atomic      Atomic             Coordinates (Angstroms)
 Number     Number       Type             X           Y           Z
 ---------------------------------------------------------------------
      1          6           0       -1.124582   -1.566170   -0.233245
      2          1           0       -1.718445   -2.143387   -0.951586
      3          1           0       -1.139884   -2.157171    0.690496
      4          6           0       -1.843386   -0.261952    0.027159
      5          6           0       -3.206264   -0.455429    0.636111
      6          1           0       -3.754150    0.473372    0.768273
      7          1           0       -3.810478   -1.115488    0.009896
      8          1           0       -3.120455   -0.937492    1.612468
      9          6           0       -1.308088    0.932590   -0.283665
     10          1           0       -0.310514    0.943318   -0.704012
     11          6           0       -1.916778    2.289904   -0.097310
     12          1           0       -2.917647    2.255080    0.324801
     13          1           0       -1.297172    2.898597    0.564011
     14          1           0       -1.975234    2.817867   -1.050955
     15          6           0        3.076691    0.401665    1.315879
     16          1           0        2.806585   -0.137470    2.222593
     17          1           0        4.133706    0.218301    1.109970
     18          1           0        2.972989    1.471704    1.510437
     19          6           0        2.222076   -0.014267    0.150166
     20          6           0        2.536928    0.693910   -1.138099
     21          1           0        1.916562    0.366530   -1.968320
     22          1           0        2.407954    1.772474   -1.019885
     23          1           0        3.580538    0.529735   -1.415419
     24          6           0        1.259902   -0.943091    0.300998
     25          1           0        1.140625   -1.378660    1.291020
     26          6           0        0.319828   -1.487929   -0.734221
     27          1           0        0.356262   -0.908656   -1.657070
     28          1           0        0.630799   -2.504045   -0.999357
 ---------------------------------------------------------------------

 The electronic state is 1-A.
 Alpha  occ. eigenvalues --  -11.22686 -11.22358 -11.21942 -11.21829 -11.21617
 Alpha  occ. eigenvalues --  -11.21343 -11.21320 -11.21276 -11.21210 -11.21081
 Alpha  occ. eigenvalues --   -1.10786  -1.08087  -1.02024  -0.97716  -0.93690
 Alpha  occ. eigenvalues --   -0.91841  -0.87599  -0.82525  -0.70620  -0.68858
 Alpha  occ. eigenvalues --   -0.64364  -0.62000  -0.59840  -0.59304  -0.58218
 Alpha  occ. eigenvalues --   -0.57455  -0.55136  -0.53680  -0.53149  -0.52864
 Alpha  occ. eigenvalues --   -0.52489  -0.51415  -0.50333  -0.49626  -0.46907
 Alpha  occ. eigenvalues --   -0.45822  -0.45194  -0.33141  -0.31216
 Alpha virt. eigenvalues --    0.18829   0.19896   0.23127   0.24462   0.25630
 Alpha virt. eigenvalues --    0.26760   0.28971   0.29285   0.30687   0.30911
 Alpha virt. eigenvalues --    0.32106   0.32486   0.33233   0.33803   0.34586

 Mulliken charges:
               1
     1  C   -0.214549
     2  H    0.117477
     3  H    0.108906
     4  C    0.010875
     5  C   -0.346963
     6  H    0.117785
     7  H    0.116415
     8  H    0.118844
     9  C   -0.143327
    10  H    0.124902
    11  C   -0.353946
    12  H    0.114042
    13  H    0.119826
    14  H    0.117517
    15  C   -0.341123
    16  H    0.118778
    17  H    0.114185
    18  H    0.114880
    19  C    0.012684
    20  C   -0.352844
    21  H    0.119031
    22  H    0.118715
    23  H    0.121461
    24  C   -0.135066
    25  H    0.116040
    26  C   -0.257835
    27  H    0.117742
    28  H    0.125547
 Sum of Mulliken charges =  -0.00000

 Dipole moment (field-independent basis, Debye):
    X=              0.0598    Y=             -0.0054    Z=             -0.0693  Tot=              0.0917
 Quadrupole moment (field-independent basis, Debye-Ang):
   XX=            -64.4254   YY=            -64.2833   ZZ=            -65.4183
   XY=              1.5940   XZ=             -0.7444   YZ=             -0.4490

 Normal termination of Gaussian 16 at Fri Sep 17 22:01:20 2021.
