 Gaussian 16, Revision A.03,
 Gaussian 16:  EM64L-G16RevA.03 25-Dec-2016

 ---------------------
 #p opt mp2/6-31g(d,p)
 ---------------------

 -------------------------------------------------
 Conformer number 034. Energy MM = 27.665 kcal/mol
 -------------------------------------------------
 Symbolic Z-matrix:
 Charge =  0 Multiplicity = 1

 SCF Done:  E(RHF) =  -389.148476980     A.U. after   13 cycles
 E2 =    -0.1422040361D+01 EUMP2 =    -0.39057051734115D+03
 SCF Done:  E(RHF) =  -389.151675092     A.U. after   11 cycles
 E2 =    -0.1420783554D+01 EUMP2 =    -0.39057245864569D+03
 SCF Done:  E(RHF) =  -389.151910138     A.U. after   10 cycles
 E2 =    -0.1420861512D+01 EUMP2 =    -0.39057277164968D+03
 SCF Done:  E(RHF) =  -389.152104238     A.U. after   10 cycles
 E2 =    -0.1420862118D+01 EUMP2 =    -0.39057296635520D+03
 SCF Done:  E(RHF) =  -389.152507648     A.U. after   10 cycles
 E2 =    -0.1420593000D+01 EUMP2 =    -0.39057310064793D+03
 SCF Done:  E(RHF) =  -389.152680803     A.U. after    9 cycles
 E2 =    -0.1420525766D+01 EUMP2 =    -0.39057320656892D+03
 SCF Done:  E(RHF) =  -389.153282322     A.U. after   10 cycles
 E2 =    -0.1420131015D+01 EUMP2 =    -0.39057341333648D+03
 SCF Done:  E(RHF) =  -389.153324455     A.U. after   10 cycles
 E2 =    -0.1420243378D+01 EUMP2 =    -0.39057356783235D+03
 SCF Done:  E(RHF) =  -389.153489768     A.U. after    9 cycles
 E2 =    -0.1420187510D+01 EUMP2 =    -0.39057367727752D+03
 SCF Done:  E(RHF) =  -389.153473926     A.U. after    9 cycles
 E2 =    -0.1420256131D+01 EUMP2 =    -0.39057373005661D+03
 SCF Done:  E(RHF) =  -389.153461139     A.U. after    9 cycles
 E2 =    -0.1420290680D+01 EUMP2 =    -0.39057375181912D+03
 SCF Done:  E(RHF) =  -389.153509496     A.U. after    9 cycles
 E2 =    -0.1420253041D+01 EUMP2 =    -0.39057376253685D+03
 SCF Done:  E(RHF) =  -389.153417747     A.U. after    9 cycles
 E2 =    -0.1420339450D+01 EUMP2 =    -0.39057375719769D+03
 SCF Done:  E(RHF) =  -389.153437161     A.U. after    9 cycles
 E2 =    -0.1420334905D+01 EUMP2 =    -0.39057377206564D+03
 SCF Done:  E(RHF) =  -389.153450735     A.U. after    8 cycles
 E2 =    -0.1420322289D+01 EUMP2 =    -0.39057377302346D+03
 SCF Done:  E(RHF) =  -389.153450758     A.U. after    8 cycles
 E2 =    -0.1420322826D+01 EUMP2 =    -0.39057377358352D+03
 SCF Done:  E(RHF) =  -389.153448382     A.U. after    6 cycles
 E2 =    -0.1420325216D+01 EUMP2 =    -0.39057377359863D+03
 Optimization completed.
    -- Stationary point found.

                         Standard orientation:
 ---------------------------------------------------------------------
 Center     Atomic      Atomic             Coordinates (Angstroms)
 Number     Number       Type             X           Y           Z
 ---------------------------------------------------------------------
      1          6           0       -0.855883    1.785158   -0.166688
      2          1           0       -0.667137    2.461914    0.671484
      3          1           0       -1.568388    2.288983   -0.824796
      4          6           0       -1.453240    0.491218    0.341760
      5          6           0       -1.146728    0.147101    1.772577
      6          1           0       -1.543173   -0.819742    2.073062
      7          1           0       -0.068113    0.138624    1.931297
      8          1           0       -1.566953    0.904967    2.437752
      9          6           0       -2.189233   -0.264405   -0.495430
     10          1           0       -2.342782    0.123019   -1.500483
     11          6           0       -2.830406   -1.591621   -0.226534
     12          1           0       -2.670171   -1.935737    0.791971
     13          1           0       -3.907397   -1.542623   -0.396956
     14          1           0       -2.436293   -2.353555   -0.901980
     15          6           0        3.062772   -0.778939    0.797612
     16          1           0        3.425543    0.037869    1.419978
     17          1           0        2.712472   -1.580062    1.452613
     18          1           0        3.907329   -1.179569    0.232285
     19          6           0        1.966034   -0.326482   -0.127401
     20          6           0        1.421127   -1.402861   -1.024075
     21          1           0        0.603765   -1.059392   -1.651240
     22          1           0        2.211002   -1.802516   -1.664447
     23          1           0        1.049267   -2.235085   -0.422178
     24          6           0        1.538248    0.950732   -0.110844
     25          1           0        2.007845    1.622843    0.604236
     26          6           0        0.455984    1.565034   -0.945970
     27          1           0        0.804105    2.531356   -1.324014
     28          1           0        0.237024    0.949093   -1.818629
 ---------------------------------------------------------------------

 The electronic state is 1-A.
 Alpha  occ. eigenvalues --  -11.22905 -11.22417 -11.21815 -11.21726 -11.21476
 Alpha  occ. eigenvalues --  -11.21353 -11.21281 -11.21253 -11.21241 -11.20944
 Alpha  occ. eigenvalues --   -1.10826  -1.08027  -1.01971  -0.97278  -0.93554
 Alpha  occ. eigenvalues --   -0.92408  -0.87489  -0.81946  -0.70431  -0.69260
 Alpha  occ. eigenvalues --   -0.63913  -0.62527  -0.59470  -0.59239  -0.58025
 Alpha  occ. eigenvalues --   -0.57118  -0.55206  -0.53892  -0.53054  -0.52843
 Alpha  occ. eigenvalues --   -0.52471  -0.51203  -0.50221  -0.49364  -0.47950
 Alpha  occ. eigenvalues --   -0.45452  -0.44722  -0.33172  -0.31265
 Alpha virt. eigenvalues --    0.18606   0.18963   0.22658   0.25754   0.25952
 Alpha virt. eigenvalues --    0.27099   0.28218   0.29765   0.29950   0.30981
 Alpha virt. eigenvalues --    0.31952   0.32552   0.32836   0.33436   0.34120

 Mulliken charges:
               1
     1  C   -0.234782
     2  H    0.110448
     3  H    0.122080
     4  C    0.023551
     5  C   -0.348222
     6  H    0.112037
     7  H    0.131424
     8  H    0.116265
     9  C   -0.154795
    10  H    0.110634
    11  C   -0.350348
    12  H    0.115622
    13  H    0.118902
    14  H    0.117589
    15  C   -0.343617
    16  H    0.117859
    17  H    0.115290
    18  H    0.116709
    19  C    0.029613
    20  C   -0.344013
    21  H    0.127111
    22  H    0.114731
    23  H    0.118363
    24  C   -0.163637
    25  H    0.114912
    26  C   -0.226120
    27  H    0.114661
    28  H    0.117732
 Sum of Mulliken charges =  -0.00000

 Dipole moment (field-independent basis, Debye):
    X=              0.1613    Y=             -0.1827    Z=              0.0695  Tot=              0.2535
 Quadrupole moment (field-independent basis, Debye-Ang):
   XX=            -66.8100   YY=            -63.9417   ZZ=            -64.7083
   XY=             -0.0092   XZ=              1.4127   YZ=              0.2964

 Normal termination of Gaussian 16 at Fri Sep 17 22:03:35 2021.
