 Gaussian 16, Revision A.03,
 Gaussian 16:  EM64L-G16RevA.03 25-Dec-2016

 ---------------------
 #p opt mp2/6-31g(d,p)
 ---------------------

 -------------------------------------------------
 Conformer number 007. Energy MM = 25.221 kcal/mol
 -------------------------------------------------
 Symbolic Z-matrix:
 Charge =  0 Multiplicity = 1

 SCF Done:  E(RHF) =  -389.151760870     A.U. after   13 cycles
 E2 =    -0.1418494718D+01 EUMP2 =    -0.39057025558773D+03
 SCF Done:  E(RHF) =  -389.154177646     A.U. after   11 cycles
 E2 =    -0.1418546758D+01 EUMP2 =    -0.39057272440422D+03
 SCF Done:  E(RHF) =  -389.154699063     A.U. after   11 cycles
 E2 =    -0.1418732727D+01 EUMP2 =    -0.39057343179024D+03
 SCF Done:  E(RHF) =  -389.154788836     A.U. after   11 cycles
 E2 =    -0.1418906309D+01 EUMP2 =    -0.39057369514447D+03
 SCF Done:  E(RHF) =  -389.155133371     A.U. after    9 cycles
 E2 =    -0.1418637323D+01 EUMP2 =    -0.39057377069404D+03
 SCF Done:  E(RHF) =  -389.155445370     A.U. after    9 cycles
 E2 =    -0.1418385839D+01 EUMP2 =    -0.39057383120832D+03
 SCF Done:  E(RHF) =  -389.155446535     A.U. after    9 cycles
 E2 =    -0.1418411862D+01 EUMP2 =    -0.39057385839737D+03
 SCF Done:  E(RHF) =  -389.155426627     A.U. after    9 cycles
 E2 =    -0.1418437688D+01 EUMP2 =    -0.39057386431494D+03
 SCF Done:  E(RHF) =  -389.155408018     A.U. after    8 cycles
 E2 =    -0.1418456741D+01 EUMP2 =    -0.39057386475818D+03
 SCF Done:  E(RHF) =  -389.155403595     A.U. after    8 cycles
 E2 =    -0.1418461336D+01 EUMP2 =    -0.39057386493109D+03
 SCF Done:  E(RHF) =  -389.155400337     A.U. after    8 cycles
 E2 =    -0.1418464681D+01 EUMP2 =    -0.39057386501886D+03
 SCF Done:  E(RHF) =  -389.155397791     A.U. after    7 cycles
 E2 =    -0.1418467319D+01 EUMP2 =    -0.39057386511011D+03
 SCF Done:  E(RHF) =  -389.155396489     A.U. after    7 cycles
 E2 =    -0.1418468663D+01 EUMP2 =    -0.39057386515198D+03
 SCF Done:  E(RHF) =  -389.155395970     A.U. after    7 cycles
 E2 =    -0.1418469205D+01 EUMP2 =    -0.39057386517530D+03
 SCF Done:  E(RHF) =  -389.155393711     A.U. after    7 cycles
 E2 =    -0.1418471476D+01 EUMP2 =    -0.39057386518740D+03
 Optimization completed.
    -- Stationary point found.

                         Standard orientation:
 ---------------------------------------------------------------------
 Center     Atomic      Atomic             Coordinates (Angstroms)
 Number     Number       Type             X           Y           Z
 ---------------------------------------------------------------------
      1          6           0        0.661444   -1.313894    0.745627
      2          1           0        0.239184   -0.875242    1.652681
      3          1           0        1.103624   -2.277062    1.024358
      4          6           0        1.731075   -0.405275    0.197018
      5          6           0        2.506537   -0.957108   -0.968936
      6          1           0        3.390702   -0.369498   -1.202304
      7          1           0        2.830266   -1.977696   -0.755321
      8          1           0        1.889662   -1.000772   -1.869033
      9          6           0        1.915915    0.817670    0.729092
     10          1           0        1.280070    1.090791    1.566627
     11          6           0        2.895217    1.870308    0.307233
     12          1           0        3.502998    1.564858   -0.540627
     13          1           0        2.372710    2.786698    0.026679
     14          1           0        3.566951    2.126951    1.128448
     15          6           0       -2.743130    1.598215   -0.726766
     16          1           0       -2.105702    1.976433   -1.524495
     17          1           0       -3.757919    1.495412   -1.118107
     18          1           0       -2.783928    2.350118    0.064642
     19          6           0       -2.239005    0.285591   -0.193385
     20          6           0       -3.068447   -0.301266    0.914816
     21          1           0       -2.667903   -1.237031    1.296056
     22          1           0       -3.132346    0.401052    1.748836
     23          1           0       -4.090812   -0.480545    0.574543
     24          6           0       -1.127016   -0.282052   -0.697116
     25          1           0       -0.604811    0.258166   -1.481510
     26          6           0       -0.485832   -1.563415   -0.253150
     27          1           0       -1.215309   -2.230673    0.207857
     28          1           0       -0.097977   -2.094605   -1.125935
 ---------------------------------------------------------------------

 The electronic state is 1-A.
 Alpha  occ. eigenvalues --  -11.22657 -11.22363 -11.21748 -11.21670 -11.21500
 Alpha  occ. eigenvalues --  -11.21497 -11.21446 -11.21331 -11.21284 -11.21036
 Alpha  occ. eigenvalues --   -1.10816  -1.08118  -1.01964  -0.97249  -0.93597
 Alpha  occ. eigenvalues --   -0.92320  -0.88046  -0.81481  -0.70821  -0.68867
 Alpha  occ. eigenvalues --   -0.64504  -0.61557  -0.61321  -0.58562  -0.57648
 Alpha  occ. eigenvalues --   -0.56814  -0.55132  -0.54446  -0.53423  -0.53049
 Alpha  occ. eigenvalues --   -0.52427  -0.51153  -0.50315  -0.49160  -0.47824
 Alpha  occ. eigenvalues --   -0.45858  -0.44502  -0.32353  -0.32071
 Alpha virt. eigenvalues --    0.18844   0.19295   0.22637   0.24633   0.26788
 Alpha virt. eigenvalues --    0.26962   0.27968   0.29127   0.30475   0.30673
 Alpha virt. eigenvalues --    0.31909   0.32313   0.33194   0.33626   0.34737

 Mulliken charges:
               1
     1  C   -0.216295
     2  H    0.117144
     3  H    0.109433
     4  C    0.020379
     5  C   -0.348102
     6  H    0.119989
     7  H    0.117130
     8  H    0.121284
     9  C   -0.149829
    10  H    0.117603
    11  C   -0.354587
    12  H    0.114701
    13  H    0.120730
    14  H    0.119914
    15  C   -0.341332
    16  H    0.119012
    17  H    0.114364
    18  H    0.114179
    19  C    0.020665
    20  C   -0.348910
    21  H    0.118713
    22  H    0.118506
    23  H    0.119156
    24  C   -0.145401
    25  H    0.119935
    26  C   -0.253307
    27  H    0.118755
    28  H    0.116171
 Sum of Mulliken charges =  -0.00000

 Dipole moment (field-independent basis, Debye):
    X=             -0.1026    Y=             -0.0052    Z=              0.0166  Tot=              0.1040
 Quadrupole moment (field-independent basis, Debye-Ang):
   XX=            -64.6434   YY=            -64.2170   ZZ=            -65.5048
   XY=             -0.3037   XZ=             -2.4022   YZ=              0.0860

 Normal termination of Gaussian 16 at Fri Sep 17 21:07:32 2021.
