 Gaussian 16, Revision A.03,
 Gaussian 16:  EM64L-G16RevA.03 25-Dec-2016

 ---------------------
 #p opt mp2/6-31g(d,p)
 ---------------------

 -------------------------------------------------
 Conformer number 012. Energy MM = 26.413 kcal/mol
 -------------------------------------------------
 Symbolic Z-matrix:
 Charge =  0 Multiplicity = 1

 SCF Done:  E(RHF) =  -389.151562070     A.U. after   13 cycles
 E2 =    -0.1418634637D+01 EUMP2 =    -0.39057019670725D+03
 SCF Done:  E(RHF) =  -389.153375642     A.U. after   11 cycles
 E2 =    -0.1418566603D+01 EUMP2 =    -0.39057194224495D+03
 SCF Done:  E(RHF) =  -389.153622868     A.U. after   10 cycles
 E2 =    -0.1418710412D+01 EUMP2 =    -0.39057233328056D+03
 SCF Done:  E(RHF) =  -389.153859980     A.U. after   11 cycles
 E2 =    -0.1418898485D+01 EUMP2 =    -0.39057275846512D+03
 SCF Done:  E(RHF) =  -389.154072638     A.U. after   10 cycles
 E2 =    -0.1418902386D+01 EUMP2 =    -0.39057297502416D+03
 SCF Done:  E(RHF) =  -389.154707742     A.U. after   10 cycles
 E2 =    -0.1418613061D+01 EUMP2 =    -0.39057332080326D+03
 SCF Done:  E(RHF) =  -389.155189390     A.U. after   10 cycles
 E2 =    -0.1418350597D+01 EUMP2 =    -0.39057353998692D+03
 SCF Done:  E(RHF) =  -389.155243444     A.U. after   10 cycles
 E2 =    -0.1418362004D+01 EUMP2 =    -0.39057360544777D+03
 SCF Done:  E(RHF) =  -389.155247040     A.U. after   10 cycles
 E2 =    -0.1418447145D+01 EUMP2 =    -0.39057369418518D+03
 SCF Done:  E(RHF) =  -389.155302370     A.U. after   11 cycles
 E2 =    -0.1418477778D+01 EUMP2 =    -0.39057378014780D+03
 E2 =    -0.1418473226D+01 EUMP2 =    -0.39057381112732D+03
 E2 =    -0.1418396985D+01 EUMP2 =    -0.39057381605811D+03
 E2 =    -0.1418382391D+01 EUMP2 =    -0.39057381674438D+03
 SCF Done:  E(RHF) =  -389.155479604     A.U. after   10 cycles
 E2 =    -0.1418374826D+01 EUMP2 =    -0.39057385443003D+03
 SCF Done:  E(RHF) =  -389.155483226     A.U. after    9 cycles
 E2 =    -0.1418378090D+01 EUMP2 =    -0.39057386131561D+03
 SCF Done:  E(RHF) =  -389.155465531     A.U. after    8 cycles
 E2 =    -0.1418394142D+01 EUMP2 =    -0.39057385967299D+03
 SCF Done:  E(RHF) =  -389.155458275     A.U. after    9 cycles
 E2 =    -0.1418405141D+01 EUMP2 =    -0.39057386341630D+03
 SCF Done:  E(RHF) =  -389.155453961     A.U. after    8 cycles
 E2 =    -0.1418409961D+01 EUMP2 =    -0.39057386392210D+03
 SCF Done:  E(RHF) =  -389.155434928     A.U. after    8 cycles
 E2 =    -0.1418429491D+01 EUMP2 =    -0.39057386441961D+03
 SCF Done:  E(RHF) =  -389.155412783     A.U. after    8 cycles
 E2 =    -0.1418452058D+01 EUMP2 =    -0.39057386484031D+03
 SCF Done:  E(RHF) =  -389.155398309     A.U. after    8 cycles
 E2 =    -0.1418466782D+01 EUMP2 =    -0.39057386509115D+03
 SCF Done:  E(RHF) =  -389.155389287     A.U. after    7 cycles
 E2 =    -0.1418475883D+01 EUMP2 =    -0.39057386516973D+03
 SCF Done:  E(RHF) =  -389.155389624     A.U. after    7 cycles
 E2 =    -0.1418475565D+01 EUMP2 =    -0.39057386518905D+03
 Optimization completed.
    -- Stationary point found.

                         Standard orientation:
 ---------------------------------------------------------------------
 Center     Atomic      Atomic             Coordinates (Angstroms)
 Number     Number       Type             X           Y           Z
 ---------------------------------------------------------------------
      1          6           0       -0.661252   -1.313911    0.745723
      2          1           0       -1.103477   -2.277006    1.024612
      3          1           0       -0.238748   -0.875210    1.652639
      4          6           0       -1.730806   -0.405205    0.197147
      5          6           0       -2.506332   -0.956936   -0.968824
      6          1           0       -3.390864   -0.369656   -1.201649
      7          1           0       -1.889713   -0.999941   -1.869130
      8          1           0       -2.829534   -1.977752   -0.755516
      9          6           0       -1.915493    0.817799    0.729147
     10          1           0       -1.279686    1.090867    1.566726
     11          6           0       -2.894670    1.870480    0.307130
     12          1           0       -3.501401    1.565534   -0.541665
     13          1           0       -3.567392    2.126291    1.127803
     14          1           0       -2.372121    2.787241    0.027878
     15          6           0        2.742994    1.597899   -0.727173
     16          1           0        2.106282    1.975439   -1.525797
     17          1           0        2.782771    2.350321    0.063795
     18          1           0        3.758216    1.495130   -1.117400
     19          6           0        2.238662    0.285498   -0.193460
     20          6           0        3.067428   -0.300743    0.915573
     21          1           0        2.666841   -1.236484    1.296831
     22          1           0        4.090097   -0.479870    0.576134
     23          1           0        3.130507    0.401877    1.749401
     24          6           0        1.127034   -0.282509   -0.697595
     25          1           0        0.605291    0.257255   -1.482608
     26          6           0        0.485777   -1.563712   -0.253301
     27          1           0        0.097609   -2.094996   -1.125888
     28          1           0        1.215276   -2.230998    0.207639
 ---------------------------------------------------------------------

 The electronic state is 1-A.
 Alpha  occ. eigenvalues --  -11.22656 -11.22362 -11.21748 -11.21670 -11.21500
 Alpha  occ. eigenvalues --  -11.21497 -11.21445 -11.21331 -11.21284 -11.21036
 Alpha  occ. eigenvalues --   -1.10816  -1.08118  -1.01964  -0.97249  -0.93597
 Alpha  occ. eigenvalues --   -0.92320  -0.88045  -0.81481  -0.70820  -0.68867
 Alpha  occ. eigenvalues --   -0.64504  -0.61556  -0.61322  -0.58562  -0.57647
 Alpha  occ. eigenvalues --   -0.56814  -0.55132  -0.54445  -0.53424  -0.53050
 Alpha  occ. eigenvalues --   -0.52426  -0.51153  -0.50315  -0.49160  -0.47823
 Alpha  occ. eigenvalues --   -0.45858  -0.44503  -0.32351  -0.32072
 Alpha virt. eigenvalues --    0.18842   0.19295   0.22636   0.24632   0.26788
 Alpha virt. eigenvalues --    0.26963   0.27969   0.29129   0.30476   0.30674
 Alpha virt. eigenvalues --    0.31908   0.32314   0.33193   0.33627   0.34739

 Mulliken charges:
               1
     1  C   -0.216289
     2  H    0.109431
     3  H    0.117136
     4  C    0.020394
     5  C   -0.348121
     6  H    0.120000
     7  H    0.121290
     8  H    0.117125
     9  C   -0.149815
    10  H    0.117598
    11  C   -0.354592
    12  H    0.114704
    13  H    0.119922
    14  H    0.120718
    15  C   -0.341331
    16  H    0.119011
    17  H    0.114187
    18  H    0.114355
    19  C    0.020686
    20  C   -0.348916
    21  H    0.118715
    22  H    0.119152
    23  H    0.118511
    24  C   -0.145409
    25  H    0.119922
    26  C   -0.253326
    27  H    0.116175
    28  H    0.118766
 Sum of Mulliken charges =  -0.00000

 Dipole moment (field-independent basis, Debye):
    X=              0.1025    Y=             -0.0051    Z=              0.0167  Tot=              0.1039
 Quadrupole moment (field-independent basis, Debye-Ang):
   XX=            -64.6449   YY=            -64.2175   ZZ=            -65.5035
   XY=              0.3049   XZ=              2.4028   YZ=              0.0860

 Normal termination of Gaussian 16 at Fri Sep 17 22:34:24 2021.
