 Gaussian 16, Revision A.03,
 Gaussian 16:  EM64L-G16RevA.03 25-Dec-2016

 ---------------------
 #p opt mp2/6-31g(d,p)
 ---------------------

 -------------------------------------------------
 Conformer number 000. Energy MM = 24.913 kcal/mol
 -------------------------------------------------
 Symbolic Z-matrix:
 Charge =  0 Multiplicity = 1

 SCF Done:  E(RHF) =  -389.153226620     A.U. after   12 cycles
 E2 =    -0.1417084987D+01 EUMP2 =    -0.39057031160627D+03
 SCF Done:  E(RHF) =  -389.155896755     A.U. after   10 cycles
 E2 =    -0.1416221335D+01 EUMP2 =    -0.39057211808947D+03
 SCF Done:  E(RHF) =  -389.156091563     A.U. after   10 cycles
 E2 =    -0.1416364368D+01 EUMP2 =    -0.39057245593122D+03
 SCF Done:  E(RHF) =  -389.156174789     A.U. after   10 cycles
 E2 =    -0.1416578720D+01 EUMP2 =    -0.39057275350873D+03
 SCF Done:  E(RHF) =  -389.156510319     A.U. after   11 cycles
 E2 =    -0.1416579052D+01 EUMP2 =    -0.39057308937108D+03
 SCF Done:  E(RHF) =  -389.156909233     A.U. after   10 cycles
 E2 =    -0.1416407450D+01 EUMP2 =    -0.39057331668230D+03
 SCF Done:  E(RHF) =  -389.156954306     A.U. after    9 cycles
 E2 =    -0.1416381126D+01 EUMP2 =    -0.39057333543189D+03
 SCF Done:  E(RHF) =  -389.156949602     A.U. after    9 cycles
 E2 =    -0.1416390391D+01 EUMP2 =    -0.39057333999318D+03
 SCF Done:  E(RHF) =  -389.156926999     A.U. after    9 cycles
 E2 =    -0.1416415428D+01 EUMP2 =    -0.39057334242692D+03
 SCF Done:  E(RHF) =  -389.156897535     A.U. after    8 cycles
 E2 =    -0.1416446787D+01 EUMP2 =    -0.39057334432176D+03
 SCF Done:  E(RHF) =  -389.156870822     A.U. after    8 cycles
 E2 =    -0.1416474143D+01 EUMP2 =    -0.39057334496429D+03
 SCF Done:  E(RHF) =  -389.156862749     A.U. after    8 cycles
 E2 =    -0.1416483745D+01 EUMP2 =    -0.39057334649417D+03
 SCF Done:  E(RHF) =  -389.156833473     A.U. after    9 cycles
 E2 =    -0.1416514393D+01 EUMP2 =    -0.39057334786621D+03
 SCF Done:  E(RHF) =  -389.156828619     A.U. after    8 cycles
 E2 =    -0.1416519510D+01 EUMP2 =    -0.39057334812874D+03
 SCF Done:  E(RHF) =  -389.156822863     A.U. after    8 cycles
 E2 =    -0.1416525463D+01 EUMP2 =    -0.39057334832588D+03
 SCF Done:  E(RHF) =  -389.156823715     A.U. after    7 cycles
 E2 =    -0.1416524691D+01 EUMP2 =    -0.39057334840536D+03
 SCF Done:  E(RHF) =  -389.156821964     A.U. after    7 cycles
 E2 =    -0.1416526459D+01 EUMP2 =    -0.39057334842346D+03
 Optimization completed.
    -- Stationary point found.

                         Standard orientation:
 ---------------------------------------------------------------------
 Center     Atomic      Atomic             Coordinates (Angstroms)
 Number     Number       Type             X           Y           Z
 ---------------------------------------------------------------------
      1          6           0        0.558322   -0.358788   -0.495297
      2          1           0        0.574464   -1.410682   -0.791546
      3          1           0        0.130759    0.199575   -1.335175
      4          6           0        1.961971    0.116246   -0.222903
      5          6           0        2.099866    1.588086    0.064695
      6          1           0        3.126312    1.936820   -0.016966
      7          1           0        1.495493    2.164195   -0.638688
      8          1           0        1.744161    1.832651    1.067389
      9          6           0        2.983784   -0.760497   -0.219087
     10          1           0        2.746421   -1.796640   -0.444684
     11          6           0        4.430254   -0.487483    0.061124
     12          1           0        4.620981    0.554505    0.304772
     13          1           0        4.777194   -1.091806    0.901210
     14          1           0        5.049565   -0.752787   -0.797670
     15          6           0       -4.131896   -0.818811   -0.221667
     16          1           0       -4.029841   -1.891139   -0.062153
     17          1           0       -4.928992   -0.450370    0.428115
     18          1           0       -4.461075   -0.655079   -1.250276
     19          6           0       -2.842292   -0.094513    0.050449
     20          6           0       -2.906304    1.395371   -0.142025
     21          1           0       -1.950617    1.886597    0.022325
     22          1           0       -3.233672    1.629307   -1.157277
     23          1           0       -3.639376    1.838180    0.535958
     24          6           0       -1.741563   -0.765808    0.438116
     25          1           0       -1.818842   -1.847123    0.520192
     26          6           0       -0.381791   -0.195711    0.713084
     27          1           0       -0.449298    0.857076    0.987803
     28          1           0        0.064252   -0.711836    1.567741
 ---------------------------------------------------------------------

 The electronic state is 1-A.
 Alpha  occ. eigenvalues --  -11.22942 -11.22511 -11.21700 -11.21672 -11.21623
 Alpha  occ. eigenvalues --  -11.21559 -11.21548 -11.21481 -11.21394 -11.21303
 Alpha  occ. eigenvalues --   -1.10736  -1.08460  -1.02106  -0.97425  -0.93781
 Alpha  occ. eigenvalues --   -0.92410  -0.87797  -0.81730  -0.70596  -0.69538
 Alpha  occ. eigenvalues --   -0.64148  -0.63199  -0.59865  -0.58878  -0.58400
 Alpha  occ. eigenvalues --   -0.56978  -0.55031  -0.54496  -0.53241  -0.52889
 Alpha  occ. eigenvalues --   -0.51756  -0.51256  -0.50605  -0.49958  -0.47402
 Alpha  occ. eigenvalues --   -0.46411  -0.44635  -0.33302  -0.31579
 Alpha virt. eigenvalues --    0.18278   0.19823   0.22639   0.24479   0.26351
 Alpha virt. eigenvalues --    0.26980   0.28134   0.29581   0.30259   0.30763
 Alpha virt. eigenvalues --    0.31180   0.32648   0.32688   0.33225   0.34298

 Mulliken charges:
               1
     1  C   -0.222853
     2  H    0.116855
     3  H    0.114794
     4  C    0.024574
     5  C   -0.351544
     6  H    0.121022
     7  H    0.116255
     8  H    0.125112
     9  C   -0.158612
    10  H    0.115763
    11  C   -0.353548
    12  H    0.115594
    13  H    0.120389
    14  H    0.120362
    15  C   -0.342540
    16  H    0.119179
    17  H    0.115884
    18  H    0.115571
    19  C    0.026488
    20  C   -0.348888
    21  H    0.118788
    22  H    0.119490
    23  H    0.120480
    24  C   -0.162061
    25  H    0.117294
    26  C   -0.242776
    27  H    0.116857
    28  H    0.122071
 Sum of Mulliken charges =  -0.00000

 Dipole moment (field-independent basis, Debye):
    X=             -0.1804    Y=              0.3344    Z=             -0.0136  Tot=              0.3802
 Quadrupole moment (field-independent basis, Debye-Ang):
   XX=            -63.3697   YY=            -63.3486   ZZ=            -67.5456
   XY=             -0.5272   XZ=              1.2952   YZ=              0.0442

 Normal termination of Gaussian 16 at Fri Sep 17 21:01:37 2021.
