 Gaussian 16, Revision A.03,
 Gaussian 16:  EM64L-G16RevA.03 25-Dec-2016

 ---------------------
 #p opt mp2/6-31g(d,p)
 ---------------------

 -------------------------------------------------
 Conformer number 027. Energy MM = 27.110 kcal/mol
 -------------------------------------------------
 Symbolic Z-matrix:
 Charge =  0 Multiplicity = 1

 SCF Done:  E(RHF) =  -389.149584759     A.U. after   13 cycles
 E2 =    -0.1417993662D+01 EUMP2 =    -0.39056757842115D+03
 SCF Done:  E(RHF) =  -389.150959141     A.U. after   11 cycles
 E2 =    -0.1418634239D+01 EUMP2 =    -0.39056959337969D+03
 SCF Done:  E(RHF) =  -389.152020779     A.U. after   10 cycles
 E2 =    -0.1418169856D+01 EUMP2 =    -0.39057019063478D+03
 SCF Done:  E(RHF) =  -389.152318919     A.U. after   13 cycles
 E2 =    -0.1418320572D+01 EUMP2 =    -0.39057063949124D+03
 SCF Done:  E(RHF) =  -389.152800435     A.U. after    9 cycles
 E2 =    -0.1418063616D+01 EUMP2 =    -0.39057086405165D+03
 SCF Done:  E(RHF) =  -389.153022041     A.U. after    9 cycles
 E2 =    -0.1417976441D+01 EUMP2 =    -0.39057099848187D+03
 SCF Done:  E(RHF) =  -389.153142778     A.U. after    9 cycles
 E2 =    -0.1417929730D+01 EUMP2 =    -0.39057107250830D+03
 SCF Done:  E(RHF) =  -389.153116136     A.U. after    9 cycles
 E2 =    -0.1417999339D+01 EUMP2 =    -0.39057111547511D+03
 SCF Done:  E(RHF) =  -389.153031798     A.U. after    9 cycles
 E2 =    -0.1418092300D+01 EUMP2 =    -0.39057112409797D+03
 SCF Done:  E(RHF) =  -389.153004090     A.U. after    8 cycles
 E2 =    -0.1418121584D+01 EUMP2 =    -0.39057112567336D+03
 SCF Done:  E(RHF) =  -389.153003490     A.U. after    7 cycles
 E2 =    -0.1418122699D+01 EUMP2 =    -0.39057112618906D+03
 SCF Done:  E(RHF) =  -389.153010509     A.U. after    7 cycles
 E2 =    -0.1418116012D+01 EUMP2 =    -0.39057112652080D+03
 SCF Done:  E(RHF) =  -389.153014337     A.U. after    7 cycles
 E2 =    -0.1418112328D+01 EUMP2 =    -0.39057112666489D+03
 SCF Done:  E(RHF) =  -389.153015318     A.U. after    7 cycles
 E2 =    -0.1418111435D+01 EUMP2 =    -0.39057112675292D+03
 SCF Done:  E(RHF) =  -389.153013933     A.U. after    7 cycles
 E2 =    -0.1418112855D+01 EUMP2 =    -0.39057112678775D+03
 SCF Done:  E(RHF) =  -389.153011061     A.U. after    7 cycles
 E2 =    -0.1418115746D+01 EUMP2 =    -0.39057112680754D+03
 SCF Done:  E(RHF) =  -389.153009217     A.U. after    6 cycles
 E2 =    -0.1418117599D+01 EUMP2 =    -0.39057112681572D+03
 SCF Done:  E(RHF) =  -389.153006992     A.U. after    7 cycles
 E2 =    -0.1418119834D+01 EUMP2 =    -0.39057112682550D+03
 SCF Done:  E(RHF) =  -389.153005056     A.U. after    7 cycles
 E2 =    -0.1418121779D+01 EUMP2 =    -0.39057112683491D+03
 SCF Done:  E(RHF) =  -389.153004364     A.U. after    6 cycles
 E2 =    -0.1418122475D+01 EUMP2 =    -0.39057112683837D+03
 Optimization completed.
    -- Stationary point found.

                         Standard orientation:
 ---------------------------------------------------------------------
 Center     Atomic      Atomic             Coordinates (Angstroms)
 Number     Number       Type             X           Y           Z
 ---------------------------------------------------------------------
      1          6           0       -0.581933   -1.334729   -0.378784
      2          1           0       -0.985780   -2.219663   -0.886119
      3          1           0       -0.044758   -1.715950    0.496394
      4          6           0       -1.743325   -0.498576    0.111834
      5          6           0       -2.481301   -1.136311    1.258047
      6          1           0       -3.398720   -0.617822    1.522595
      7          1           0       -2.740081   -2.167450    1.008111
      8          1           0       -1.844938   -1.175607    2.144850
      9          6           0       -2.083521    0.673302   -0.454435
     10          1           0       -1.482909    1.027152   -1.284694
     11          6           0       -3.217057    1.581050   -0.081084
     12          1           0       -3.781922    1.224246    0.775928
     13          1           0       -2.844002    2.578103    0.159636
     14          1           0       -3.910959    1.695427   -0.916059
     15          6           0        2.982665    1.521404    0.746943
     16          1           0        2.392172    2.424414    0.599796
     17          1           0        3.088614    1.352897    1.821049
     18          1           0        3.986314    1.700234    0.354256
     19          6           0        2.349481    0.333093    0.077237
     20          6           0        3.108447   -0.955035    0.237241
     21          1           0        2.625143   -1.797033   -0.251647
     22          1           0        4.117658   -0.857111   -0.169080
     23          1           0        3.217438   -1.199538    1.296154
     24          6           0        1.190784    0.457089   -0.597407
     25          1           0        0.733304    1.440471   -0.619587
     26          6           0        0.441740   -0.646646   -1.289736
     27          1           0       -0.057829   -0.253859   -2.178179
     28          1           0        1.135372   -1.406755   -1.652548
 ---------------------------------------------------------------------

 The electronic state is 1-A.
 Alpha  occ. eigenvalues --  -11.22664 -11.22648 -11.21913 -11.21714 -11.21527
 Alpha  occ. eigenvalues --  -11.21395 -11.21386 -11.21328 -11.21293 -11.21025
 Alpha  occ. eigenvalues --   -1.10789  -1.08154  -1.01820  -0.97834  -0.93623
 Alpha  occ. eigenvalues --   -0.91831  -0.87676  -0.82717  -0.70144  -0.68968
 Alpha  occ. eigenvalues --   -0.64224  -0.61947  -0.61076  -0.58531  -0.57954
 Alpha  occ. eigenvalues --   -0.57560  -0.55329  -0.53992  -0.53090  -0.52760
 Alpha  occ. eigenvalues --   -0.52457  -0.51399  -0.50569  -0.49406  -0.47113
 Alpha  occ. eigenvalues --   -0.46127  -0.44594  -0.32469  -0.32041
 Alpha virt. eigenvalues --    0.18743   0.19400   0.23223   0.24724   0.25707
 Alpha virt. eigenvalues --    0.26453   0.28548   0.29750   0.30575   0.31011
 Alpha virt. eigenvalues --    0.31978   0.32367   0.33238   0.33899   0.34470

 Mulliken charges:
               1
     1  C   -0.200782
     2  H    0.116587
     3  H    0.113890
     4  C    0.018407
     5  C   -0.350032
     6  H    0.117728
     7  H    0.116839
     8  H    0.123071
     9  C   -0.154685
    10  H    0.114296
    11  C   -0.352235
    12  H    0.115406
    13  H    0.118845
    14  H    0.119344
    15  C   -0.341367
    16  H    0.119014
    17  H    0.114527
    18  H    0.114371
    19  C    0.021895
    20  C   -0.349440
    21  H    0.118517
    22  H    0.119046
    23  H    0.119312
    24  C   -0.147387
    25  H    0.120392
    26  C   -0.265339
    27  H    0.119266
    28  H    0.120515
 Sum of Mulliken charges =   0.00000

 Dipole moment (field-independent basis, Debye):
    X=              0.1080    Y=             -0.2847    Z=              0.2340  Tot=              0.3841
 Quadrupole moment (field-independent basis, Debye-Ang):
   XX=            -64.2679   YY=            -64.0251   ZZ=            -65.7842
   XY=             -0.9126   XZ=              0.3580   YZ=             -0.3838

 Normal termination of Gaussian 16 at Fri Sep 17 22:09:11 2021.
