 Gaussian 16, Revision A.03,
 Gaussian 16:  EM64L-G16RevA.03 25-Dec-2016

 ---------------------
 #p opt mp2/6-31g(d,p)
 ---------------------

 -------------------------------------------------
 Conformer number 020. Energy MM = 28.610 kcal/mol
 -------------------------------------------------
 Symbolic Z-matrix:
 Charge =  0 Multiplicity = 1

 SCF Done:  E(RHF) =  -389.148166301     A.U. after   13 cycles
 E2 =    -0.1418038927D+01 EUMP2 =    -0.39056620522787D+03
 SCF Done:  E(RHF) =  -389.150304399     A.U. after   11 cycles
 E2 =    -0.1417952871D+01 EUMP2 =    -0.39056825727005D+03
 SCF Done:  E(RHF) =  -389.150918527     A.U. after   11 cycles
 E2 =    -0.1418030146D+01 EUMP2 =    -0.39056894867331D+03
 SCF Done:  E(RHF) =  -389.151852320     A.U. after   13 cycles
 E2 =    -0.1418609657D+01 EUMP2 =    -0.39057046197693D+03
 SCF Done:  E(RHF) =  -389.153215557     A.U. after   13 cycles
 E2 =    -0.1418163604D+01 EUMP2 =    -0.39057137916156D+03
 SCF Done:  E(RHF) =  -389.153890434     A.U. after   13 cycles
 E2 =    -0.1418432096D+01 EUMP2 =    -0.39057232252984D+03
 SCF Done:  E(RHF) =  -389.153741364     A.U. after   11 cycles
 E2 =    -0.1418782043D+01 EUMP2 =    -0.39057252340678D+03
 SCF Done:  E(RHF) =  -389.153951065     A.U. after   10 cycles
 E2 =    -0.1418588767D+01 EUMP2 =    -0.39057253983215D+03
 SCF Done:  E(RHF) =  -389.153859880     A.U. after   10 cycles
 E2 =    -0.1418745175D+01 EUMP2 =    -0.39057260505491D+03
 SCF Done:  E(RHF) =  -389.153793115     A.U. after    9 cycles
 E2 =    -0.1418822974D+01 EUMP2 =    -0.39057261608868D+03
 SCF Done:  E(RHF) =  -389.153786843     A.U. after    8 cycles
 E2 =    -0.1418831195D+01 EUMP2 =    -0.39057261803804D+03
 SCF Done:  E(RHF) =  -389.153784289     A.U. after    8 cycles
 E2 =    -0.1418834802D+01 EUMP2 =    -0.39057261909103D+03
 SCF Done:  E(RHF) =  -389.153790186     A.U. after    7 cycles
 E2 =    -0.1418829247D+01 EUMP2 =    -0.39057261943244D+03
 SCF Done:  E(RHF) =  -389.153794771     A.U. after    8 cycles
 E2 =    -0.1418824867D+01 EUMP2 =    -0.39057261963801D+03
 SCF Done:  E(RHF) =  -389.153796905     A.U. after    7 cycles
 E2 =    -0.1418822750D+01 EUMP2 =    -0.39057261965488D+03
 Optimization completed.
    -- Stationary point found.

                         Standard orientation:
 ---------------------------------------------------------------------
 Center     Atomic      Atomic             Coordinates (Angstroms)
 Number     Number       Type             X           Y           Z
 ---------------------------------------------------------------------
      1          6           0        0.653340   -1.333890    0.512353
      2          1           0        0.107124   -1.295755    1.458862
      3          1           0        1.186509   -2.287843    0.488421
      4          6           0        1.643618   -0.191372    0.448934
      5          6           0        1.303418    1.010211    1.287444
      6          1           0        1.964169    1.855464    1.110862
      7          1           0        0.279068    1.327771    1.091048
      8          1           0        1.360283    0.753613    2.347910
      9          6           0        2.733949   -0.306186   -0.332605
     10          1           0        2.859625   -1.246068   -0.865559
     11          6           0        3.816107    0.703046   -0.568244
     12          1           0        3.653096    1.627869   -0.020938
     13          1           0        4.786892    0.304754   -0.267482
     14          1           0        3.889727    0.950183   -1.628922
     15          6           0       -2.966531    1.603987   -0.413428
     16          1           0       -2.313748    2.277311   -0.967013
     17          1           0       -3.916013    1.530511   -0.948728
     18          1           0       -3.184571    2.057516    0.556186
     19          6           0       -2.342258    0.246386   -0.242910
     20          6           0       -3.184686   -0.743188    0.512839
     21          1           0       -2.696593   -1.706066    0.639677
     22          1           0       -3.422932   -0.354139    1.505157
     23          1           0       -4.135891   -0.906092    0.001131
     24          6           0       -1.120955   -0.019879   -0.744648
     25          1           0       -0.604624    0.787070   -1.257087
     26          6           0       -0.362293   -1.311086   -0.647034
     27          1           0       -1.042758   -2.158116   -0.541337
     28          1           0        0.188397   -1.466168   -1.578395
 ---------------------------------------------------------------------

 The electronic state is 1-A.
 Alpha  occ. eigenvalues --  -11.22962 -11.22417 -11.21792 -11.21683 -11.21675
 Alpha  occ. eigenvalues --  -11.21535 -11.21354 -11.21284 -11.21265 -11.21012
 Alpha  occ. eigenvalues --   -1.10804  -1.08206  -1.01895  -0.97250  -0.93820
 Alpha  occ. eigenvalues --   -0.92468  -0.87518  -0.81991  -0.70952  -0.68584
 Alpha  occ. eigenvalues --   -0.63918  -0.62733  -0.60156  -0.58812  -0.57940
 Alpha  occ. eigenvalues --   -0.57307  -0.55024  -0.53607  -0.53297  -0.53224
 Alpha  occ. eigenvalues --   -0.52542  -0.51120  -0.50742  -0.49799  -0.47074
 Alpha  occ. eigenvalues --   -0.46305  -0.44283  -0.33411  -0.31178
 Alpha virt. eigenvalues --    0.18327   0.19351   0.22789   0.25391   0.26271
 Alpha virt. eigenvalues --    0.27085   0.28389   0.29185   0.30265   0.30493
 Alpha virt. eigenvalues --    0.31601   0.32586   0.32977   0.33580   0.34759

 Mulliken charges:
               1
     1  C   -0.226044
     2  H    0.112600
     3  H    0.119466
     4  C    0.009460
     5  C   -0.348604
     6  H    0.112835
     7  H    0.130117
     8  H    0.119217
     9  C   -0.151397
    10  H    0.112217
    11  C   -0.351211
    12  H    0.115713
    13  H    0.119481
    14  H    0.118307
    15  C   -0.342616
    16  H    0.119539
    17  H    0.116519
    18  H    0.114766
    19  C    0.023410
    20  C   -0.349119
    21  H    0.120602
    22  H    0.119234
    23  H    0.120190
    24  C   -0.164388
    25  H    0.126070
    26  C   -0.228978
    27  H    0.113340
    28  H    0.119276
 Sum of Mulliken charges =  -0.00000

 Dipole moment (field-independent basis, Debye):
    X=             -0.4066    Y=              0.0416    Z=              0.1923  Tot=              0.4517
 Quadrupole moment (field-independent basis, Debye-Ang):
   XX=            -64.1242   YY=            -64.2712   ZZ=            -66.2527
   XY=              0.2468   XZ=             -1.9655   YZ=              0.1501

 Normal termination of Gaussian 16 at Fri Sep 17 21:47:00 2021.
