 Gaussian 16, Revision A.03,
 Gaussian 16:  EM64L-G16RevA.03 25-Dec-2016

 ---------------------
 #p opt mp2/6-31g(d,p)
 ---------------------

 -------------------------------------------------
 Conformer number 036. Energy MM = 25.902 kcal/mol
 -------------------------------------------------
 Symbolic Z-matrix:
 Charge =  0 Multiplicity = 1

 SCF Done:  E(RHF) =  -389.151070332     A.U. after   13 cycles
 E2 =    -0.1421413290D+01 EUMP2 =    -0.39057248362207D+03
 SCF Done:  E(RHF) =  -389.152065378     A.U. after   11 cycles
 E2 =    -0.1421960304D+01 EUMP2 =    -0.39057402568202D+03
 SCF Done:  E(RHF) =  -389.154058323     A.U. after   11 cycles
 E2 =    -0.1419815778D+01 EUMP2 =    -0.39057387410119D+03
 SCF Done:  E(RHF) =  -389.153486244     A.U. after   11 cycles
 E2 =    -0.1420848770D+01 EUMP2 =    -0.39057433501385D+03
 SCF Done:  E(RHF) =  -389.152759798     A.U. after   10 cycles
 E2 =    -0.1421662577D+01 EUMP2 =    -0.39057442237471D+03
 SCF Done:  E(RHF) =  -389.152856259     A.U. after   10 cycles
 E2 =    -0.1421699765D+01 EUMP2 =    -0.39057455602421D+03
 SCF Done:  E(RHF) =  -389.153021246     A.U. after   10 cycles
 E2 =    -0.1421636970D+01 EUMP2 =    -0.39057465821602D+03
 SCF Done:  E(RHF) =  -389.153366556     A.U. after   10 cycles
 E2 =    -0.1421295545D+01 EUMP2 =    -0.39057466210141D+03
 SCF Done:  E(RHF) =  -389.153540751     A.U. after    9 cycles
 E2 =    -0.1421178638D+01 EUMP2 =    -0.39057471938908D+03
 SCF Done:  E(RHF) =  -389.153500731     A.U. after    9 cycles
 E2 =    -0.1421243577D+01 EUMP2 =    -0.39057474430787D+03
 SCF Done:  E(RHF) =  -389.153454367     A.U. after    8 cycles
 E2 =    -0.1421293400D+01 EUMP2 =    -0.39057474776623D+03
 SCF Done:  E(RHF) =  -389.153436702     A.U. after    8 cycles
 E2 =    -0.1421313566D+01 EUMP2 =    -0.39057475026893D+03
 SCF Done:  E(RHF) =  -389.153436700     A.U. after    7 cycles
 E2 =    -0.1421313685D+01 EUMP2 =    -0.39057475038442D+03
 SCF Done:  E(RHF) =  -389.153439801     A.U. after    8 cycles
 E2 =    -0.1421310640D+01 EUMP2 =    -0.39057475044046D+03
 SCF Done:  E(RHF) =  -389.153443413     A.U. after    6 cycles
 E2 =    -0.1421307360D+01 EUMP2 =    -0.39057475077355D+03
 SCF Done:  E(RHF) =  -389.153436471     A.U. after    7 cycles
 E2 =    -0.1421314349D+01 EUMP2 =    -0.39057475081994D+03
 SCF Done:  E(RHF) =  -389.153437905     A.U. after    6 cycles
 E2 =    -0.1421312931D+01 EUMP2 =    -0.39057475083685D+03
 SCF Done:  E(RHF) =  -389.153436311     A.U. after    6 cycles
 E2 =    -0.1421314541D+01 EUMP2 =    -0.39057475085233D+03
 Optimization completed.
    -- Stationary point found.

                         Standard orientation:
 ---------------------------------------------------------------------
 Center     Atomic      Atomic             Coordinates (Angstroms)
 Number     Number       Type             X           Y           Z
 ---------------------------------------------------------------------
      1          6           0       -0.964948   -1.581677   -0.722790
      2          1           0       -0.817099   -1.494662   -1.801883
      3          1           0       -1.663152   -2.408923   -0.560460
      4          6           0       -1.552968   -0.306258   -0.177558
      5          6           0       -2.279810   -0.450877    1.131765
      6          1           0       -2.545844    0.502694    1.580629
      7          1           0       -3.197203   -1.027754    0.994295
      8          1           0       -1.669293   -0.997253    1.853230
      9          6           0       -1.386372    0.852216   -0.843754
     10          1           0       -0.846567    0.803208   -1.785197
     11          6           0       -1.849031    2.221019   -0.447751
     12          1           0       -2.394868    2.225816    0.492390
     13          1           0       -0.998859    2.898751   -0.345395
     14          1           0       -2.501366    2.645174   -1.213324
     15          6           0        2.951641    1.007245   -0.429639
     16          1           0        3.282590    0.641439   -1.400556
     17          1           0        2.573627    2.024324   -0.557835
     18          1           0        3.822286    1.073812    0.226799
     19          6           0        1.895123    0.118262    0.166276
     20          6           0        1.382541    0.564547    1.506237
     21          1           0        0.662292   -0.126571    1.934979
     22          1           0        2.209079    0.681567    2.210943
     23          1           0        0.896428    1.538475    1.416636
     24          6           0        1.468172   -0.978135   -0.488012
     25          1           0        1.906707   -1.178181   -1.462855
     26          6           0        0.390972   -1.930816   -0.067162
     27          1           0        0.672255   -2.944164   -0.365802
     28          1           0        0.277072   -1.950901    1.017735
 ---------------------------------------------------------------------

 The electronic state is 1-A.
 Alpha  occ. eigenvalues --  -11.22626 -11.22229 -11.21802 -11.21706 -11.21514
 Alpha  occ. eigenvalues --  -11.21420 -11.21336 -11.21298 -11.21196 -11.20891
 Alpha  occ. eigenvalues --   -1.10824  -1.07879  -1.01979  -0.97445  -0.93451
 Alpha  occ. eigenvalues --   -0.92061  -0.87983  -0.81604  -0.70067  -0.69690
 Alpha  occ. eigenvalues --   -0.64338  -0.61481  -0.61144  -0.58909  -0.57496
 Alpha  occ. eigenvalues --   -0.56690  -0.55228  -0.54097  -0.53583  -0.52879
 Alpha  occ. eigenvalues --   -0.52490  -0.50693  -0.50022  -0.49312  -0.48324
 Alpha  occ. eigenvalues --   -0.45208  -0.44966  -0.32245  -0.31883
 Alpha virt. eigenvalues --    0.18612   0.19273   0.22030   0.24539   0.26232
 Alpha virt. eigenvalues --    0.27090   0.28545   0.29151   0.30256   0.30285
 Alpha virt. eigenvalues --    0.31371   0.33022   0.33347   0.34445   0.34975

 Mulliken charges:
               1
     1  C   -0.228781
     2  H    0.118712
     3  H    0.110271
     4  C    0.015995
     5  C   -0.343069
     6  H    0.118055
     7  H    0.122412
     8  H    0.110640
     9  C   -0.138606
    10  H    0.117608
    11  C   -0.354378
    12  H    0.114839
    13  H    0.117204
    14  H    0.119959
    15  C   -0.344150
    16  H    0.117587
    17  H    0.114280
    18  H    0.115118
    19  C    0.041337
    20  C   -0.341414
    21  H    0.116110
    22  H    0.112679
    23  H    0.122462
    24  C   -0.159531
    25  H    0.112973
    26  C   -0.240217
    27  H    0.117767
    28  H    0.114136
 Sum of Mulliken charges =  -0.00000

 Dipole moment (field-independent basis, Debye):
    X=             -0.0951    Y=              0.1725    Z=              0.2137  Tot=              0.2906
 Quadrupole moment (field-independent basis, Debye-Ang):
   XX=            -66.7205   YY=            -64.1857   ZZ=            -64.4608
   XY=              1.1310   XZ=             -1.4477   YZ=              0.3370

 Normal termination of Gaussian 16 at Fri Sep 17 22:10:38 2021.
