 Gaussian 16, Revision A.03,
 Gaussian 16:  EM64L-G16RevA.03 25-Dec-2016

 ---------------------
 #p opt mp2/6-31g(d,p)
 ---------------------

 -------------------------------------------------
 Conformer number 015. Energy MM = 28.536 kcal/mol
 -------------------------------------------------
 Symbolic Z-matrix:
 Charge =  0 Multiplicity = 1

 SCF Done:  E(RHF) =  -389.149244197     A.U. after   12 cycles
 E2 =    -0.1417008276D+01 EUMP2 =    -0.39056625247284D+03
 SCF Done:  E(RHF) =  -389.153332952     A.U. after   11 cycles
 E2 =    -0.1415794354D+01 EUMP2 =    -0.39056912730622D+03
 SCF Done:  E(RHF) =  -389.153669742     A.U. after   10 cycles
 E2 =    -0.1415794147D+01 EUMP2 =    -0.39056946388897D+03
 SCF Done:  E(RHF) =  -389.153798247     A.U. after    9 cycles
 E2 =    -0.1415883766D+01 EUMP2 =    -0.39056968201341D+03
 SCF Done:  E(RHF) =  -389.153941842     A.U. after   10 cycles
 E2 =    -0.1415948072D+01 EUMP2 =    -0.39056988991431D+03
 SCF Done:  E(RHF) =  -389.154070126     A.U. after    9 cycles
 E2 =    -0.1415920047D+01 EUMP2 =    -0.39056999017299D+03
 SCF Done:  E(RHF) =  -389.154655874     A.U. after   10 cycles
 E2 =    -0.1415695139D+01 EUMP2 =    -0.39057035101322D+03
 SCF Done:  E(RHF) =  -389.154888921     A.U. after   10 cycles
 E2 =    -0.1415557288D+01 EUMP2 =    -0.39057044620880D+03
 SCF Done:  E(RHF) =  -389.154921702     A.U. after    9 cycles
 E2 =    -0.1415547423D+01 EUMP2 =    -0.39057046912462D+03
 SCF Done:  E(RHF) =  -389.154970198     A.U. after   10 cycles
 E2 =    -0.1415523512D+01 EUMP2 =    -0.39057049371023D+03
 E2 =    -0.1415534817D+01 EUMP2 =    -0.39057054617247D+03
 E2 =    -0.1415704168D+01 EUMP2 =    -0.39057058296924D+03
 E2 =    -0.1415677289D+01 EUMP2 =    -0.39057082860331D+03
 E2 =    -0.1415794284D+01 EUMP2 =    -0.39057120911008D+03
 E2 =    -0.1415969323D+01 EUMP2 =    -0.39057160190771D+03
 E2 =    -0.1416067733D+01 EUMP2 =    -0.39057180447193D+03
 E2 =    -0.1416019450D+01 EUMP2 =    -0.39057199145817D+03
 E2 =    -0.1416036050D+01 EUMP2 =    -0.39057209870020D+03
 E2 =    -0.1416051634D+01 EUMP2 =    -0.39057212226521D+03
 E2 =    -0.1416097185D+01 EUMP2 =    -0.39057215418027D+03
 E2 =    -0.1416193020D+01 EUMP2 =    -0.39057218319380D+03
 E2 =    -0.1416234523D+01 EUMP2 =    -0.39057219387549D+03
 SCF Done:  E(RHF) =  -389.155968260     A.U. after    8 cycles
 E2 =    -0.1416230015D+01 EUMP2 =    -0.39057219827496D+03
 SCF Done:  E(RHF) =  -389.155995834     A.U. after    9 cycles
 E2 =    -0.1416204851D+01 EUMP2 =    -0.39057220068571D+03
 SCF Done:  E(RHF) =  -389.156029621     A.U. after    9 cycles
 E2 =    -0.1416172739D+01 EUMP2 =    -0.39057220236028D+03
 SCF Done:  E(RHF) =  -389.156051500     A.U. after    8 cycles
 E2 =    -0.1416151436D+01 EUMP2 =    -0.39057220293579D+03
 SCF Done:  E(RHF) =  -389.156058967     A.U. after    8 cycles
 E2 =    -0.1416144177D+01 EUMP2 =    -0.39057220314432D+03
 SCF Done:  E(RHF) =  -389.156063190     A.U. after    8 cycles
 E2 =    -0.1416140178D+01 EUMP2 =    -0.39057220336785D+03
 SCF Done:  E(RHF) =  -389.156057690     A.U. after    8 cycles
 E2 =    -0.1416145959D+01 EUMP2 =    -0.39057220364872D+03
 SCF Done:  E(RHF) =  -389.156051461     A.U. after    8 cycles
 E2 =    -0.1416152308D+01 EUMP2 =    -0.39057220376904D+03
 SCF Done:  E(RHF) =  -389.156047879     A.U. after    7 cycles
 E2 =    -0.1416155954D+01 EUMP2 =    -0.39057220383352D+03
 SCF Done:  E(RHF) =  -389.156046847     A.U. after    7 cycles
 E2 =    -0.1416157003D+01 EUMP2 =    -0.39057220385024D+03
 Optimization completed.
    -- Stationary point found.

                         Standard orientation:
 ---------------------------------------------------------------------
 Center     Atomic      Atomic             Coordinates (Angstroms)
 Number     Number       Type             X           Y           Z
 ---------------------------------------------------------------------
      1          6           0        0.538891   -0.762047   -0.078601
      2          1           0        0.139078   -1.057604    0.898214
      3          1           0        0.443046   -1.655675   -0.706747
      4          6           0        2.008567   -0.444643    0.077028
      5          6           0        2.805082   -1.598732    0.624514
      6          1           0        3.858676   -1.369758    0.758047
      7          1           0        2.403300   -1.909736    1.591121
      8          1           0        2.729312   -2.460813   -0.041594
      9          6           0        2.524408    0.755774   -0.244994
     10          1           0        1.848115    1.510159   -0.630560
     11          6           0        3.952107    1.202046   -0.139623
     12          1           0        4.612827    0.428659    0.242646
     13          1           0        4.330046    1.509987   -1.116175
     14          1           0        4.035730    2.067944    0.519660
     15          6           0       -4.174015   -0.460109   -0.293286
     16          1           0       -4.161427   -1.077748   -1.190019
     17          1           0       -4.519712   -1.074366    0.541203
     18          1           0       -4.915007    0.330384   -0.432469
     19          6           0       -2.817949    0.122813   -0.004215
     20          6           0       -2.758282    0.992370    1.220929
     21          1           0       -1.760894    1.372721    1.425134
     22          1           0       -3.434351    1.844086    1.118173
     23          1           0       -3.089687    0.430511    2.096784
     24          6           0       -1.770544   -0.138468   -0.808468
     25          1           0       -1.944065   -0.799067   -1.654497
     26          6           0       -0.357196    0.338925   -0.650431
     27          1           0        0.027248    0.643865   -1.627281
     28          1           0       -0.308648    1.218874   -0.008751
 ---------------------------------------------------------------------

 The electronic state is 1-A.
 Alpha  occ. eigenvalues --  -11.22919 -11.22666 -11.21834 -11.21628 -11.21588
 Alpha  occ. eigenvalues --  -11.21461 -11.21437 -11.21421 -11.21351 -11.21312
 Alpha  occ. eigenvalues --   -1.10741  -1.08418  -1.02019  -0.97869  -0.93728
 Alpha  occ. eigenvalues --   -0.92029  -0.87200  -0.82983  -0.70311  -0.69056
 Alpha  occ. eigenvalues --   -0.63960  -0.63320  -0.60086  -0.59083  -0.58549
 Alpha  occ. eigenvalues --   -0.56272  -0.55701  -0.54671  -0.53190  -0.52798
 Alpha  occ. eigenvalues --   -0.52150  -0.51319  -0.50326  -0.48691  -0.47756
 Alpha  occ. eigenvalues --   -0.46335  -0.44918  -0.32557  -0.32298
 Alpha virt. eigenvalues --    0.18976   0.19591   0.23180   0.24499   0.26349
 Alpha virt. eigenvalues --    0.26855   0.27547   0.29411   0.30214   0.31202
 Alpha virt. eigenvalues --    0.32162   0.32416   0.33141   0.33783   0.34618

 Mulliken charges:
               1
     1  C   -0.202566
     2  H    0.118991
     3  H    0.113644
     4  C    0.010671
     5  C   -0.347487
     6  H    0.118134
     7  H    0.119295
     8  H    0.119639
     9  C   -0.162481
    10  H    0.122177
    11  C   -0.351352
    12  H    0.114810
    13  H    0.119614
    14  H    0.119296
    15  C   -0.342415
    16  H    0.118872
    17  H    0.115297
    18  H    0.115916
    19  C    0.025784
    20  C   -0.349697
    21  H    0.122044
    22  H    0.120048
    23  H    0.119096
    24  C   -0.163110
    25  H    0.117180
    26  C   -0.254134
    27  H    0.122281
    28  H    0.120453
 Sum of Mulliken charges =  -0.00000

 Dipole moment (field-independent basis, Debye):
    X=             -0.1356    Y=             -0.1080    Z=              0.2641  Tot=              0.3159
 Quadrupole moment (field-independent basis, Debye-Ang):
   XX=            -63.5778   YY=            -64.7768   ZZ=            -65.7462
   XY=             -0.0908   XZ=             -0.6118   YZ=              0.3816

 Normal termination of Gaussian 16 at Fri Sep 17 23:06:59 2021.
