 Gaussian 16, Revision A.03,
 Gaussian 16:  EM64L-G16RevA.03 25-Dec-2016

 ---------------------
 #p opt mp2/6-31g(d,p)
 ---------------------

 -------------------------------------------------
 Conformer number 035. Energy MM = 30.724 kcal/mol
 -------------------------------------------------
 Symbolic Z-matrix:
 Charge =  0 Multiplicity = 1

 SCF Done:  E(RHF) =  -389.144267165     A.U. after   13 cycles
 E2 =    -0.1418259292D+01 EUMP2 =    -0.39056252645721D+03
 SCF Done:  E(RHF) =  -389.148557113     A.U. after   13 cycles
 E2 =    -0.1417763248D+01 EUMP2 =    -0.39056632036074D+03
 SCF Done:  E(RHF) =  -389.152111337     A.U. after   13 cycles
 E2 =    -0.1417644927D+01 EUMP2 =    -0.39056975626399D+03
 SCF Done:  E(RHF) =  -389.153513981     A.U. after   13 cycles
 E2 =    -0.1418340380D+01 EUMP2 =    -0.39057185436085D+03
 SCF Done:  E(RHF) =  -389.154882898     A.U. after   11 cycles
 E2 =    -0.1417904122D+01 EUMP2 =    -0.39057278702007D+03
 SCF Done:  E(RHF) =  -389.154837186     A.U. after   11 cycles
 E2 =    -0.1418117369D+01 EUMP2 =    -0.39057295455472D+03
 SCF Done:  E(RHF) =  -389.155149822     A.U. after   10 cycles
 E2 =    -0.1417885689D+01 EUMP2 =    -0.39057303551131D+03
 SCF Done:  E(RHF) =  -389.155198388     A.U. after    9 cycles
 E2 =    -0.1417877693D+01 EUMP2 =    -0.39057307608026D+03
 SCF Done:  E(RHF) =  -389.155277143     A.U. after   10 cycles
 E2 =    -0.1417858646D+01 EUMP2 =    -0.39057313578879D+03
 SCF Done:  E(RHF) =  -389.155296627     A.U. after    9 cycles
 E2 =    -0.1417845072D+01 EUMP2 =    -0.39057314169887D+03
 E2 =    -0.1417858542D+01 EUMP2 =    -0.39057314960976D+03
 E2 =    -0.1417850872D+01 EUMP2 =    -0.39057315544082D+03
 E2 =    -0.1417845085D+01 EUMP2 =    -0.39057315271480D+03
 E2 =    -0.1417850514D+01 EUMP2 =    -0.39057317089652D+03
 E2 =    -0.1417786508D+01 EUMP2 =    -0.39057329495391D+03
 E2 =    -0.1417576155D+01 EUMP2 =    -0.39057310694328D+03
 E2 =    -0.1417791582D+01 EUMP2 =    -0.39057337889570D+03
 E2 =    -0.1417936992D+01 EUMP2 =    -0.39057324859198D+03
 E2 =    -0.1420590256D+01 EUMP2 =    -0.39055376853570D+03
 E2 =    -0.1417779395D+01 EUMP2 =    -0.39057346321821D+03
 E2 =    -0.1417875579D+01 EUMP2 =    -0.39057351351142D+03
 E2 =    -0.1418023190D+01 EUMP2 =    -0.39057357964365D+03
 E2 =    -0.1418406862D+01 EUMP2 =    -0.39057363273173D+03
 E2 =    -0.1418580753D+01 EUMP2 =    -0.39057363696281D+03
 E2 =    -0.1418473404D+01 EUMP2 =    -0.39057367734286D+03
 E2 =    -0.1418338911D+01 EUMP2 =    -0.39057369820795D+03
 E2 =    -0.1418376167D+01 EUMP2 =    -0.39057376046444D+03
 E2 =    -0.1418590278D+01 EUMP2 =    -0.39057385042571D+03
 E2 =    -0.1418583041D+01 EUMP2 =    -0.39057385552283D+03
 SCF Done:  E(RHF) =  -389.155398511     A.U. after    9 cycles
 E2 =    -0.1418462153D+01 EUMP2 =    -0.39057386066429D+03
 SCF Done:  E(RHF) =  -389.155444783     A.U. after    9 cycles
 E2 =    -0.1418416017D+01 EUMP2 =    -0.39057386079976D+03
 SCF Done:  E(RHF) =  -389.155480780     A.U. after    8 cycles
 E2 =    -0.1418380063D+01 EUMP2 =    -0.39057386084267D+03
 SCF Done:  E(RHF) =  -389.155476074     A.U. after    8 cycles
 E2 =    -0.1418386826D+01 EUMP2 =    -0.39057386289939D+03
 SCF Done:  E(RHF) =  -389.155480471     A.U. after    8 cycles
 E2 =    -0.1418382745D+01 EUMP2 =    -0.39057386321545D+03
 SCF Done:  E(RHF) =  -389.155424312     A.U. after    9 cycles
 E2 =    -0.1418440005D+01 EUMP2 =    -0.39057386431689D+03
 SCF Done:  E(RHF) =  -389.155396465     A.U. after    8 cycles
 E2 =    -0.1418468336D+01 EUMP2 =    -0.39057386480095D+03
 SCF Done:  E(RHF) =  -389.155391812     A.U. after    7 cycles
 E2 =    -0.1418473351D+01 EUMP2 =    -0.39057386516314D+03
 SCF Done:  E(RHF) =  -389.155383243     A.U. after    7 cycles
 E2 =    -0.1418481945D+01 EUMP2 =    -0.39057386518790D+03
 SCF Done:  E(RHF) =  -389.155386186     A.U. after    7 cycles
 E2 =    -0.1418479012D+01 EUMP2 =    -0.39057386519840D+03
 Optimization completed.
    -- Stationary point found.

                         Standard orientation:
 ---------------------------------------------------------------------
 Center     Atomic      Atomic             Coordinates (Angstroms)
 Number     Number       Type             X           Y           Z
 ---------------------------------------------------------------------
      1          6           0       -0.661133   -1.314032   -0.745727
      2          1           0       -0.238326   -0.875339   -1.652506
      3          1           0       -1.103508   -2.277002   -1.024806
      4          6           0       -1.730583   -0.405115   -0.197299
      5          6           0       -2.506714   -0.956869    0.968244
      6          1           0       -3.391138   -0.369360    1.200900
      7          1           0       -2.830140   -1.977548    0.754621
      8          1           0       -1.890429   -1.000245    1.868764
      9          6           0       -1.914552    0.818131   -0.728996
     10          1           0       -1.278257    1.091203   -1.566205
     11          6           0       -2.893371    1.871160   -0.307025
     12          1           0       -3.501947    1.565506    0.540196
     13          1           0       -2.370394    2.786960   -0.025405
     14          1           0       -3.564354    2.128919   -1.128502
     15          6           0        2.742706    1.597533    0.727536
     16          1           0        2.106263    1.974824    1.526491
     17          1           0        3.758055    1.494629    1.117397
     18          1           0        2.782228    2.350207   -0.063205
     19          6           0        2.238191    0.285300    0.193586
     20          6           0        3.066294   -0.300402   -0.916218
     21          1           0        2.665674   -1.236153   -1.297420
     22          1           0        3.128558    0.402459   -1.749905
     23          1           0        4.089266   -0.479333   -0.577585
     24          6           0        1.126955   -0.283073    0.698163
     25          1           0        0.605587    0.256277    1.483708
     26          6           0        0.485624   -1.564142    0.253540
     27          1           0        1.215162   -2.231453   -0.207320
     28          1           0        0.097198   -2.095491    1.125962
 ---------------------------------------------------------------------

 The electronic state is 1-A.
 Alpha  occ. eigenvalues --  -11.22656 -11.22362 -11.21748 -11.21670 -11.21500
 Alpha  occ. eigenvalues --  -11.21497 -11.21445 -11.21331 -11.21284 -11.21036
 Alpha  occ. eigenvalues --   -1.10817  -1.08118  -1.01963  -0.97249  -0.93597
 Alpha  occ. eigenvalues --   -0.92320  -0.88045  -0.81481  -0.70820  -0.68867
 Alpha  occ. eigenvalues --   -0.64504  -0.61555  -0.61322  -0.58562  -0.57647
 Alpha  occ. eigenvalues --   -0.56815  -0.55131  -0.54444  -0.53425  -0.53050
 Alpha  occ. eigenvalues --   -0.52426  -0.51153  -0.50316  -0.49161  -0.47822
 Alpha  occ. eigenvalues --   -0.45858  -0.44503  -0.32350  -0.32072
 Alpha virt. eigenvalues --    0.18841   0.19296   0.22635   0.24632   0.26787
 Alpha virt. eigenvalues --    0.26963   0.27967   0.29128   0.30475   0.30673
 Alpha virt. eigenvalues --    0.31912   0.32313   0.33192   0.33627   0.34738

 Mulliken charges:
               1
     1  C   -0.216287
     2  H    0.117134
     3  H    0.109424
     4  C    0.020392
     5  C   -0.348113
     6  H    0.119996
     7  H    0.117119
     8  H    0.121290
     9  C   -0.149792
    10  H    0.117593
    11  C   -0.354592
    12  H    0.114699
    13  H    0.120734
    14  H    0.119903
    15  C   -0.341330
    16  H    0.119010
    17  H    0.114361
    18  H    0.114181
    19  C    0.020711
    20  C   -0.348922
    21  H    0.118717
    22  H    0.118513
    23  H    0.119147
    24  C   -0.145433
    25  H    0.119915
    26  C   -0.253321
    27  H    0.118774
    28  H    0.116172
 Sum of Mulliken charges =  -0.00000

 Dipole moment (field-independent basis, Debye):
    X=              0.1025    Y=             -0.0049    Z=             -0.0166  Tot=              0.1040
 Quadrupole moment (field-independent basis, Debye-Ang):
   XX=            -64.6470   YY=            -64.2172   ZZ=            -65.5035
   XY=              0.3066   XZ=             -2.4039   YZ=             -0.0857

 Normal termination of Gaussian 16 at Fri Sep 17 23:46:54 2021.
