 Gaussian 16, Revision A.03,
 Gaussian 16:  EM64L-G16RevA.03 25-Dec-2016

 ---------------------
 #p opt mp2/6-31g(d,p)
 ---------------------

 -------------------------------------------------
 Conformer number 008. Energy MM = 26.045 kcal/mol
 -------------------------------------------------
 Symbolic Z-matrix:
 Charge =  0 Multiplicity = 1

 SCF Done:  E(RHF) =  -389.150647889     A.U. after   13 cycles
 E2 =    -0.1419005913D+01 EUMP2 =    -0.39056965380228D+03
 SCF Done:  E(RHF) =  -389.152180412     A.U. after   11 cycles
 E2 =    -0.1419226388D+01 EUMP2 =    -0.39057140680061D+03
 SCF Done:  E(RHF) =  -389.153081554     A.U. after   11 cycles
 E2 =    -0.1418549007D+01 EUMP2 =    -0.39057163056127D+03
 SCF Done:  E(RHF) =  -389.152881874     A.U. after   10 cycles
 E2 =    -0.1418990273D+01 EUMP2 =    -0.39057187214736D+03
 SCF Done:  E(RHF) =  -389.152941375     A.U. after   10 cycles
 E2 =    -0.1419229178D+01 EUMP2 =    -0.39057217055298D+03
 SCF Done:  E(RHF) =  -389.153369094     A.U. after   10 cycles
 E2 =    -0.1419020387D+01 EUMP2 =    -0.39057238948150D+03
 SCF Done:  E(RHF) =  -389.153850839     A.U. after   10 cycles
 E2 =    -0.1418650761D+01 EUMP2 =    -0.39057250160044D+03
 SCF Done:  E(RHF) =  -389.153946421     A.U. after    9 cycles
 E2 =    -0.1418601518D+01 EUMP2 =    -0.39057254793829D+03
 SCF Done:  E(RHF) =  -389.153854032     A.U. after    9 cycles
 E2 =    -0.1418726634D+01 EUMP2 =    -0.39057258066622D+03
 SCF Done:  E(RHF) =  -389.153795687     A.U. after    9 cycles
 E2 =    -0.1418812075D+01 EUMP2 =    -0.39057260776187D+03
 SCF Done:  E(RHF) =  -389.153794573     A.U. after    8 cycles
 E2 =    -0.1418820690D+01 EUMP2 =    -0.39057261526257D+03
 SCF Done:  E(RHF) =  -389.153797970     A.U. after    9 cycles
 E2 =    -0.1418821317D+01 EUMP2 =    -0.39057261928665D+03
 SCF Done:  E(RHF) =  -389.153799167     A.U. after    8 cycles
 E2 =    -0.1418820289D+01 EUMP2 =    -0.39057261945589D+03
 SCF Done:  E(RHF) =  -389.153799240     A.U. after    6 cycles
 E2 =    -0.1418820273D+01 EUMP2 =    -0.39057261951268D+03
 SCF Done:  E(RHF) =  -389.153798488     A.U. after    7 cycles
 E2 =    -0.1418821103D+01 EUMP2 =    -0.39057261959168D+03
 SCF Done:  E(RHF) =  -389.153797490     A.U. after    6 cycles
 E2 =    -0.1418822124D+01 EUMP2 =    -0.39057261961453D+03
 SCF Done:  E(RHF) =  -389.153796126     A.U. after    6 cycles
 E2 =    -0.1418823530D+01 EUMP2 =    -0.39057261965581D+03
 SCF Done:  E(RHF) =  -389.153795416     A.U. after    6 cycles
 E2 =    -0.1418824262D+01 EUMP2 =    -0.39057261967805D+03
 Optimization completed.
    -- Stationary point found.

                         Standard orientation:
 ---------------------------------------------------------------------
 Center     Atomic      Atomic             Coordinates (Angstroms)
 Number     Number       Type             X           Y           Z
 ---------------------------------------------------------------------
      1          6           0        0.653218   -1.333939    0.512378
      2          1           0        0.106855   -1.295780    1.458802
      3          1           0        1.186528   -2.287818    0.488618
      4          6           0        1.643400   -0.191332    0.449018
      5          6           0        1.303114    1.010290    1.287418
      6          1           0        1.964442    1.855218    1.111461
      7          1           0        0.279033    1.328348    1.090423
      8          1           0        1.359171    0.753500    2.347884
      9          6           0        2.733768   -0.306102   -0.332490
     10          1           0        2.859598   -1.246072   -0.865260
     11          6           0        3.815933    0.703104   -0.568166
     12          1           0        3.651275    1.629195   -0.023499
     13          1           0        4.786314    0.306058   -0.264428
     14          1           0        3.891613    0.947683   -1.629281
     15          6           0       -2.966197    1.604027   -0.413534
     16          1           0       -2.313815    2.276940   -0.968085
     17          1           0       -3.916282    1.530594   -0.947764
     18          1           0       -3.183090    2.058023    0.556130
     19          6           0       -2.342121    0.246334   -0.243118
     20          6           0       -3.184373   -0.742994    0.513145
     21          1           0       -2.696951   -1.706387    0.638636
     22          1           0       -3.420929   -0.354402    1.506050
     23          1           0       -4.136414   -0.904701    0.002617
     24          6           0       -1.120905   -0.020113   -0.744982
     25          1           0       -0.604648    0.786698   -1.257713
     26          6           0       -0.362253   -1.311317   -0.647136
     27          1           0       -1.042733   -2.158327   -0.541378
     28          1           0        0.188528   -1.466522   -1.578420
 ---------------------------------------------------------------------

 The electronic state is 1-A.
 Alpha  occ. eigenvalues --  -11.22962 -11.22417 -11.21792 -11.21683 -11.21675
 Alpha  occ. eigenvalues --  -11.21535 -11.21354 -11.21284 -11.21265 -11.21012
 Alpha  occ. eigenvalues --   -1.10804  -1.08206  -1.01895  -0.97250  -0.93820
 Alpha  occ. eigenvalues --   -0.92468  -0.87518  -0.81991  -0.70952  -0.68583
 Alpha  occ. eigenvalues --   -0.63918  -0.62733  -0.60156  -0.58813  -0.57941
 Alpha  occ. eigenvalues --   -0.57307  -0.55024  -0.53608  -0.53296  -0.53224
 Alpha  occ. eigenvalues --   -0.52542  -0.51121  -0.50742  -0.49799  -0.47074
 Alpha  occ. eigenvalues --   -0.46306  -0.44283  -0.33410  -0.31178
 Alpha virt. eigenvalues --    0.18327   0.19352   0.22788   0.25390   0.26270
 Alpha virt. eigenvalues --    0.27086   0.28390   0.29184   0.30263   0.30493
 Alpha virt. eigenvalues --    0.31600   0.32587   0.32977   0.33580   0.34754

 Mulliken charges:
               1
     1  C   -0.226027
     2  H    0.112594
     3  H    0.119467
     4  C    0.009461
     5  C   -0.348585
     6  H    0.112829
     7  H    0.130116
     8  H    0.119204
     9  C   -0.151401
    10  H    0.112212
    11  C   -0.351206
    12  H    0.115705
    13  H    0.119511
    14  H    0.118284
    15  C   -0.342619
    16  H    0.119544
    17  H    0.116501
    18  H    0.114780
    19  C    0.023427
    20  C   -0.349114
    21  H    0.120598
    22  H    0.119255
    23  H    0.120161
    24  C   -0.164404
    25  H    0.126068
    26  C   -0.228973
    27  H    0.113338
    28  H    0.119273
 Sum of Mulliken charges =  -0.00000

 Dipole moment (field-independent basis, Debye):
    X=             -0.4062    Y=              0.0417    Z=              0.1928  Tot=              0.4515
 Quadrupole moment (field-independent basis, Debye-Ang):
   XX=            -64.1246   YY=            -64.2712   ZZ=            -66.2531
   XY=              0.2454   XZ=             -1.9666   YZ=              0.1498

 Normal termination of Gaussian 16 at Fri Sep 17 21:16:11 2021.
