 Gaussian 16, Revision A.03,
 Gaussian 16:  EM64L-G16RevA.03 25-Dec-2016

 ---------------------
 #p opt mp2/6-31g(d,p)
 ---------------------

 -------------------------------------------------
 Conformer number 019. Energy MM = 25.810 kcal/mol
 -------------------------------------------------
 Symbolic Z-matrix:
 Charge =  0 Multiplicity = 1

 SCF Done:  E(RHF) =  -389.151699159     A.U. after   12 cycles
 E2 =    -0.1417026470D+01 EUMP2 =    -0.39056872562848D+03
 SCF Done:  E(RHF) =  -389.154454188     A.U. after   11 cycles
 E2 =    -0.1416516502D+01 EUMP2 =    -0.39057097068965D+03
 SCF Done:  E(RHF) =  -389.154785332     A.U. after   10 cycles
 E2 =    -0.1416558229D+01 EUMP2 =    -0.39057134356013D+03
 SCF Done:  E(RHF) =  -389.154948077     A.U. after   10 cycles
 E2 =    -0.1416656895D+01 EUMP2 =    -0.39057160497170D+03
 SCF Done:  E(RHF) =  -389.155262591     A.U. after   10 cycles
 E2 =    -0.1416602820D+01 EUMP2 =    -0.39057186541114D+03
 SCF Done:  E(RHF) =  -389.155791899     A.U. after   10 cycles
 E2 =    -0.1416314225D+01 EUMP2 =    -0.39057210612389D+03
 SCF Done:  E(RHF) =  -389.155986879     A.U. after    9 cycles
 E2 =    -0.1416174530D+01 EUMP2 =    -0.39057216140891D+03
 SCF Done:  E(RHF) =  -389.156047466     A.U. after    9 cycles
 E2 =    -0.1416126604D+01 EUMP2 =    -0.39057217407066D+03
 SCF Done:  E(RHF) =  -389.156037411     A.U. after    9 cycles
 E2 =    -0.1416148733D+01 EUMP2 =    -0.39057218614455D+03
 SCF Done:  E(RHF) =  -389.156059348     A.U. after    9 cycles
 E2 =    -0.1416139948D+01 EUMP2 =    -0.39057219929555D+03
 SCF Done:  E(RHF) =  -389.156054602     A.U. after    8 cycles
 E2 =    -0.1416147677D+01 EUMP2 =    -0.39057220227903D+03
 SCF Done:  E(RHF) =  -389.156060992     A.U. after    7 cycles
 E2 =    -0.1416141771D+01 EUMP2 =    -0.39057220276312D+03
 SCF Done:  E(RHF) =  -389.156058790     A.U. after    8 cycles
 E2 =    -0.1416144208D+01 EUMP2 =    -0.39057220299805D+03
 SCF Done:  E(RHF) =  -389.156058302     A.U. after    7 cycles
 E2 =    -0.1416145021D+01 EUMP2 =    -0.39057220332236D+03
 SCF Done:  E(RHF) =  -389.156056793     A.U. after    8 cycles
 E2 =    -0.1416146708D+01 EUMP2 =    -0.39057220350117D+03
 SCF Done:  E(RHF) =  -389.156052604     A.U. after    7 cycles
 E2 =    -0.1416151106D+01 EUMP2 =    -0.39057220371010D+03
 SCF Done:  E(RHF) =  -389.156049651     A.U. after    7 cycles
 E2 =    -0.1416154174D+01 EUMP2 =    -0.39057220382448D+03
 SCF Done:  E(RHF) =  -389.156048182     A.U. after    7 cycles
 E2 =    -0.1416155667D+01 EUMP2 =    -0.39057220384839D+03
 Optimization completed.
    -- Stationary point found.

                         Standard orientation:
 ---------------------------------------------------------------------
 Center     Atomic      Atomic             Coordinates (Angstroms)
 Number     Number       Type             X           Y           Z
 ---------------------------------------------------------------------
      1          6           0        0.539050    0.762223   -0.078548
      2          1           0        0.443342    1.655783   -0.706813
      3          1           0        0.139247    1.057931    0.898223
      4          6           0        2.008667    0.444643    0.077161
      5          6           0        2.805289    1.598589    0.624793
      6          1           0        3.858894    1.369554    0.758140
      7          1           0        2.729463    2.460835   -0.041098
      8          1           0        2.403628    1.909380    1.591518
      9          6           0        2.524397   -0.755753   -0.245083
     10          1           0        1.848027   -1.509994   -0.630817
     11          6           0        3.952049   -1.202203   -0.139850
     12          1           0        4.612901   -0.428952    0.242470
     13          1           0        4.035601   -2.068195    0.519317
     14          1           0        4.329872   -1.510066   -1.116470
     15          6           0       -4.173955    0.460455   -0.293231
     16          1           0       -4.161238    1.078214   -1.189881
     17          1           0       -4.915148   -0.329829   -0.432490
     18          1           0       -4.519463    1.074699    0.541350
     19          6           0       -2.818022   -0.122848   -0.004274
     20          6           0       -2.758751   -0.993004    1.220460
     21          1           0       -1.761472   -1.373576    1.424762
     22          1           0       -3.090358   -0.431563    2.096506
     23          1           0       -3.434882   -1.844595    1.117075
     24          6           0       -1.770458    0.138784   -0.808212
     25          1           0       -1.943832    0.799802   -1.653943
     26          6           0       -0.357141   -0.338728   -0.650256
     27          1           0       -0.308567   -1.218618   -0.008507
     28          1           0        0.027233   -0.643762   -1.627107
 ---------------------------------------------------------------------

 The electronic state is 1-A.
 Alpha  occ. eigenvalues --  -11.22920 -11.22665 -11.21834 -11.21628 -11.21588
 Alpha  occ. eigenvalues --  -11.21461 -11.21437 -11.21421 -11.21351 -11.21312
 Alpha  occ. eigenvalues --   -1.10741  -1.08418  -1.02019  -0.97869  -0.93728
 Alpha  occ. eigenvalues --   -0.92029  -0.87200  -0.82983  -0.70311  -0.69056
 Alpha  occ. eigenvalues --   -0.63960  -0.63320  -0.60086  -0.59084  -0.58549
 Alpha  occ. eigenvalues --   -0.56272  -0.55702  -0.54671  -0.53189  -0.52798
 Alpha  occ. eigenvalues --   -0.52150  -0.51319  -0.50325  -0.48691  -0.47756
 Alpha  occ. eigenvalues --   -0.46335  -0.44919  -0.32558  -0.32297
 Alpha virt. eigenvalues --    0.18977   0.19591   0.23180   0.24499   0.26349
 Alpha virt. eigenvalues --    0.26855   0.27548   0.29410   0.30214   0.31202
 Alpha virt. eigenvalues --    0.32162   0.32415   0.33141   0.33783   0.34617

 Mulliken charges:
               1
     1  C   -0.202575
     2  H    0.113645
     3  H    0.118990
     4  C    0.010676
     5  C   -0.347486
     6  H    0.118136
     7  H    0.119635
     8  H    0.119297
     9  C   -0.162483
    10  H    0.122176
    11  C   -0.351353
    12  H    0.114811
    13  H    0.119298
    14  H    0.119614
    15  C   -0.342417
    16  H    0.118870
    17  H    0.115906
    18  H    0.115305
    19  C    0.025768
    20  C   -0.349694
    21  H    0.122042
    22  H    0.119097
    23  H    0.120050
    24  C   -0.163091
    25  H    0.117179
    26  C   -0.254133
    27  H    0.120456
    28  H    0.122282
 Sum of Mulliken charges =  -0.00000

 Dipole moment (field-independent basis, Debye):
    X=             -0.1355    Y=              0.1079    Z=              0.2640  Tot=              0.3158
 Quadrupole moment (field-independent basis, Debye-Ang):
   XX=            -63.5776   YY=            -64.7761   ZZ=            -65.7469
   XY=              0.0911   XZ=             -0.6123   YZ=             -0.3817

 Normal termination of Gaussian 16 at Fri Sep 17 21:58:14 2021.
