 Gaussian 16, Revision A.03,
 Gaussian 16:  EM64L-G16RevA.03 25-Dec-2016

 ---------------------
 #p opt mp2/6-31g(d,p)
 ---------------------

 -------------------------------------------------
 Conformer number 009. Energy MM = 27.427 kcal/mol
 -------------------------------------------------
 Symbolic Z-matrix:
 Charge =  0 Multiplicity = 1

 SCF Done:  E(RHF) =  -389.151574687     A.U. after   12 cycles
 E2 =    -0.1416688987D+01 EUMP2 =    -0.39056826367383D+03
 SCF Done:  E(RHF) =  -389.154655266     A.U. after   11 cycles
 E2 =    -0.1415759952D+01 EUMP2 =    -0.39057041521755D+03
 SCF Done:  E(RHF) =  -389.155067374     A.U. after   11 cycles
 E2 =    -0.1415955226D+01 EUMP2 =    -0.39057102260013D+03
 SCF Done:  E(RHF) =  -389.155420463     A.U. after   11 cycles
 E2 =    -0.1416098261D+01 EUMP2 =    -0.39057151872405D+03
 SCF Done:  E(RHF) =  -389.155863230     A.U. after   13 cycles
 E2 =    -0.1416147384D+01 EUMP2 =    -0.39057201061336D+03
 SCF Done:  E(RHF) =  -389.156629271     A.U. after   10 cycles
 E2 =    -0.1415993694D+01 EUMP2 =    -0.39057262296461D+03
 SCF Done:  E(RHF) =  -389.157028896     A.U. after   11 cycles
 E2 =    -0.1415870122D+01 EUMP2 =    -0.39057289901848D+03
 SCF Done:  E(RHF) =  -389.156892016     A.U. after   11 cycles
 E2 =    -0.1415990380D+01 EUMP2 =    -0.39057288239636D+03
 SCF Done:  E(RHF) =  -389.157051309     A.U. after   10 cycles
 E2 =    -0.1415996093D+01 EUMP2 =    -0.39057304740169D+03
 SCF Done:  E(RHF) =  -389.156988601     A.U. after    9 cycles
 E2 =    -0.1416067236D+01 EUMP2 =    -0.39057305583700D+03
 E2 =    -0.1416149486D+01 EUMP2 =    -0.39057308594050D+03
 E2 =    -0.1416215979D+01 EUMP2 =    -0.39057313214675D+03
 E2 =    -0.1416360718D+01 EUMP2 =    -0.39057316707146D+03
 E2 =    -0.1416650532D+01 EUMP2 =    -0.39057317821214D+03
 E2 =    -0.1416227017D+01 EUMP2 =    -0.39057314381620D+03
 E2 =    -0.1416379923D+01 EUMP2 =    -0.39057320858713D+03
 E2 =    -0.1416230974D+01 EUMP2 =    -0.39057315633505D+03
 E2 =    -0.1416335506D+01 EUMP2 =    -0.39057321002796D+03
 SCF Done:  E(RHF) =  -389.156958698     A.U. after    9 cycles
 E2 =    -0.1416211328D+01 EUMP2 =    -0.39057317002562D+03
 SCF Done:  E(RHF) =  -389.156996979     A.U. after   10 cycles
 E2 =    -0.1416229644D+01 EUMP2 =    -0.39057322662260D+03
 SCF Done:  E(RHF) =  -389.154872474     A.U. after   13 cycles
 E2 =    -0.1416566328D+01 EUMP2 =    -0.39057143880213D+03
 SCF Done:  E(RHF) =  -389.156862515     A.U. after   10 cycles
 E2 =    -0.1416377383D+01 EUMP2 =    -0.39057323989760D+03
 SCF Done:  E(RHF) =  -389.156936404     A.U. after   11 cycles
 E2 =    -0.1416307596D+01 EUMP2 =    -0.39057324400004D+03
 SCF Done:  E(RHF) =  -389.156938538     A.U. after    9 cycles
 E2 =    -0.1416318771D+01 EUMP2 =    -0.39057325730932D+03
 SCF Done:  E(RHF) =  -389.156930127     A.U. after    8 cycles
 E2 =    -0.1416330086D+01 EUMP2 =    -0.39057326021358D+03
 SCF Done:  E(RHF) =  -389.156935948     A.U. after    9 cycles
 E2 =    -0.1416325631D+01 EUMP2 =    -0.39057326157863D+03
 SCF Done:  E(RHF) =  -389.156942112     A.U. after    8 cycles
 E2 =    -0.1416319643D+01 EUMP2 =    -0.39057326175526D+03
 SCF Done:  E(RHF) =  -389.156943830     A.U. after    6 cycles
 E2 =    -0.1416317968D+01 EUMP2 =    -0.39057326179837D+03
 Optimization completed.
    -- Stationary point found.

                         Standard orientation:
 ---------------------------------------------------------------------
 Center     Atomic      Atomic             Coordinates (Angstroms)
 Number     Number       Type             X           Y           Z
 ---------------------------------------------------------------------
      1          6           0        0.553597   -0.454792   -0.655967
      2          1           0        0.454841   -1.311689   -1.331746
      3          1           0        0.240445    0.428294   -1.217743
      4          6           0        1.990382   -0.307632   -0.225828
      5          6           0        2.601082   -1.522038    0.422211
      6          1           0        3.685900   -1.470108    0.470133
      7          1           0        2.229451   -1.660281    1.439219
      8          1           0        2.335068   -2.419098   -0.139998
      9          6           0        2.629149    0.864349   -0.403557
     10          1           0        2.072095    1.661746   -0.888092
     11          6           0        4.032617    1.216722   -0.014348
     12          1           0        4.544985    0.402159    0.491061
     13          1           0        4.621258    1.494467   -0.890623
     14          1           0        4.038047    2.077202    0.657122
     15          6           0       -4.171733   -0.183459   -0.474324
     16          1           0       -4.237607   -1.210641   -0.829756
     17          1           0       -4.931562   -0.038748    0.297067
     18          1           0       -4.429392    0.482478   -1.300983
     19          6           0       -2.801043    0.130371    0.059452
     20          6           0       -2.634966    1.533601    0.573098
     21          1           0       -1.626383    1.743417    0.919249
     22          1           0       -2.877435    2.252287   -0.212641
     23          1           0       -3.325686    1.722917    1.397812
     24          6           0       -1.831679   -0.803940    0.060819
     25          1           0       -2.076877   -1.777144   -0.357685
     26          6           0       -0.414790   -0.646743    0.525513
     27          1           0       -0.306899    0.200402    1.204144
     28          1           0       -0.125941   -1.536295    1.091049
 ---------------------------------------------------------------------

 The electronic state is 1-A.
 Alpha  occ. eigenvalues --  -11.22919 -11.22524 -11.21711 -11.21627 -11.21570
 Alpha  occ. eigenvalues --  -11.21559 -11.21513 -11.21455 -11.21401 -11.21298
 Alpha  occ. eigenvalues --   -1.10712  -1.08439  -1.02116  -0.97412  -0.93715
 Alpha  occ. eigenvalues --   -0.92410  -0.87778  -0.81711  -0.70461  -0.69695
 Alpha  occ. eigenvalues --   -0.64283  -0.63079  -0.59595  -0.58686  -0.58536
 Alpha  occ. eigenvalues --   -0.56929  -0.55095  -0.54874  -0.53177  -0.52751
 Alpha  occ. eigenvalues --   -0.51784  -0.51130  -0.50640  -0.49304  -0.47960
 Alpha  occ. eigenvalues --   -0.46341  -0.44583  -0.33431  -0.31446
 Alpha virt. eigenvalues --    0.18430   0.19806   0.22981   0.24450   0.26534
 Alpha virt. eigenvalues --    0.26924   0.27865   0.28938   0.30370   0.30757
 Alpha virt. eigenvalues --    0.31379   0.32420   0.33234   0.33546   0.34255

 Mulliken charges:
               1
     1  C   -0.223809
     2  H    0.110985
     3  H    0.121000
     4  C    0.023436
     5  C   -0.349597
     6  H    0.120456
     7  H    0.125260
     8  H    0.116665
     9  C   -0.159267
    10  H    0.115719
    11  C   -0.353368
    12  H    0.115755
    13  H    0.120461
    14  H    0.119976
    15  C   -0.342640
    16  H    0.118795
    17  H    0.115864
    18  H    0.115475
    19  C    0.025382
    20  C   -0.349423
    21  H    0.122034
    22  H    0.118827
    23  H    0.120083
    24  C   -0.159695
    25  H    0.115889
    26  C   -0.243237
    27  H    0.121704
    28  H    0.117270
 Sum of Mulliken charges =  -0.00000

 Dipole moment (field-independent basis, Debye):
    X=             -0.0903    Y=              0.0783    Z=              0.1306  Tot=              0.1770
 Quadrupole moment (field-independent basis, Debye-Ang):
   XX=            -63.7657   YY=            -63.3647   ZZ=            -67.0590
   XY=             -1.0235   XZ=              1.2573   YZ=              0.0088

 Normal termination of Gaussian 16 at Fri Sep 17 22:50:12 2021.
