 Gaussian 16, Revision A.03,
 Gaussian 16:  EM64L-G16RevA.03 25-Dec-2016

 ---------------------
 #p opt mp2/6-31g(d,p)
 ---------------------

 -------------------------------------------------
 Conformer number 001. Energy MM = 26.346 kcal/mol
 -------------------------------------------------
 Symbolic Z-matrix:
 Charge =  0 Multiplicity = 1

 SCF Done:  E(RHF) =  -389.152112433     A.U. after   12 cycles
 E2 =    -0.1416434175D+01 EUMP2 =    -0.39056854660819D+03
 SCF Done:  E(RHF) =  -389.154886218     A.U. after   11 cycles
 E2 =    -0.1415716159D+01 EUMP2 =    -0.39057060237752D+03
 SCF Done:  E(RHF) =  -389.155261688     A.U. after   11 cycles
 E2 =    -0.1415845960D+01 EUMP2 =    -0.39057110764797D+03
 SCF Done:  E(RHF) =  -389.155400988     A.U. after   11 cycles
 E2 =    -0.1415970059D+01 EUMP2 =    -0.39057137104654D+03
 SCF Done:  E(RHF) =  -389.155586752     A.U. after    9 cycles
 E2 =    -0.1415885218D+01 EUMP2 =    -0.39057147197011D+03
 SCF Done:  E(RHF) =  -389.155926940     A.U. after   10 cycles
 E2 =    -0.1415766033D+01 EUMP2 =    -0.39057169297359D+03
 SCF Done:  E(RHF) =  -389.156132231     A.U. after   11 cycles
 E2 =    -0.1415719125D+01 EUMP2 =    -0.39057185135617D+03
 SCF Done:  E(RHF) =  -389.156383779     A.U. after   11 cycles
 E2 =    -0.1415750467D+01 EUMP2 =    -0.39057213424542D+03
 SCF Done:  E(RHF) =  -389.156549910     A.U. after   11 cycles
 E2 =    -0.1415961711D+01 EUMP2 =    -0.39057251162054D+03
 SCF Done:  E(RHF) =  -389.156016500     A.U. after   11 cycles
 E2 =    -0.1415959563D+01 EUMP2 =    -0.39057197606277D+03
 E2 =    -0.1415910393D+01 EUMP2 =    -0.39057266814130D+03
 E2 =    -0.1415975389D+01 EUMP2 =    -0.39057261748397D+03
 E2 =    -0.1416041076D+01 EUMP2 =    -0.39057305215621D+03
 E2 =    -0.1416016293D+01 EUMP2 =    -0.39057274046697D+03
 E2 =    -0.1416043474D+01 EUMP2 =    -0.39057317179284D+03
 E2 =    -0.1416091001D+01 EUMP2 =    -0.39057321618841D+03
 SCF Done:  E(RHF) =  -389.157106169     A.U. after   10 cycles
 E2 =    -0.1416107517D+01 EUMP2 =    -0.39057321368622D+03
 SCF Done:  E(RHF) =  -389.157055879     A.U. after   11 cycles
 E2 =    -0.1416197637D+01 EUMP2 =    -0.39057325351598D+03
 SCF Done:  E(RHF) =  -389.157046993     A.U. after    8 cycles
 E2 =    -0.1416206934D+01 EUMP2 =    -0.39057325392746D+03
 SCF Done:  E(RHF) =  -389.156999104     A.U. after    9 cycles
 E2 =    -0.1416253369D+01 EUMP2 =    -0.39057325247237D+03
 SCF Done:  E(RHF) =  -389.156946627     A.U. after   10 cycles
 E2 =    -0.1416314609D+01 EUMP2 =    -0.39057326123586D+03
 SCF Done:  E(RHF) =  -389.156937155     A.U. after    8 cycles
 E2 =    -0.1416324303D+01 EUMP2 =    -0.39057326145739D+03
 SCF Done:  E(RHF) =  -389.156922241     A.U. after    8 cycles
 E2 =    -0.1416338543D+01 EUMP2 =    -0.39057326078379D+03
 SCF Done:  E(RHF) =  -389.156933309     A.U. after    8 cycles
 E2 =    -0.1416328348D+01 EUMP2 =    -0.39057326165737D+03
 SCF Done:  E(RHF) =  -389.156939030     A.U. after    8 cycles
 E2 =    -0.1416322761D+01 EUMP2 =    -0.39057326179098D+03
 SCF Done:  E(RHF) =  -389.156943180     A.U. after    8 cycles
 E2 =    -0.1416318627D+01 EUMP2 =    -0.39057326180725D+03
 Optimization completed.
    -- Stationary point found.

                         Standard orientation:
 ---------------------------------------------------------------------
 Center     Atomic      Atomic             Coordinates (Angstroms)
 Number     Number       Type             X           Y           Z
 ---------------------------------------------------------------------
      1          6           0       -0.553458   -0.454768   -0.655932
      2          1           0       -0.240215    0.428469   -1.217417
      3          1           0       -0.454637   -1.311481   -1.331932
      4          6           0       -1.990275   -0.307651   -0.225902
      5          6           0       -2.601168   -1.522169    0.421747
      6          1           0       -3.686016   -1.470352    0.469079
      7          1           0       -2.334771   -2.419153   -0.140407
      8          1           0       -2.230084   -1.660490    1.438939
      9          6           0       -2.628957    0.864420   -0.403391
     10          1           0       -2.071797    1.661909   -0.887655
     11          6           0       -4.032393    1.216865   -0.014141
     12          1           0       -4.545266    0.401868    0.490051
     13          1           0       -4.037657    2.076467    0.658461
     14          1           0       -4.620628    1.496025   -0.890231
     15          6           0        4.171716   -0.183282   -0.474104
     16          1           0        4.237889   -1.210606   -0.829067
     17          1           0        4.429171    0.482360   -1.301065
     18          1           0        4.931505   -0.037989    0.297213
     19          6           0        2.800947    0.130369    0.059567
     20          6           0        2.634486    1.533745    0.572720
     21          1           0        1.625789    1.743469    0.918595
     22          1           0        3.325002    1.723530    1.397489
     23          1           0        2.876920    2.252197   -0.213243
     24          6           0        1.831768   -0.804145    0.061049
     25          1           0        2.077172   -1.777352   -0.357316
     26          6           0        0.414808   -0.647056    0.525584
     27          1           0        0.125901   -1.536739    1.090877
     28          1           0        0.306876    0.199900    1.204441
 ---------------------------------------------------------------------

 The electronic state is 1-A.
 Alpha  occ. eigenvalues --  -11.22919 -11.22524 -11.21711 -11.21627 -11.21570
 Alpha  occ. eigenvalues --  -11.21559 -11.21513 -11.21455 -11.21402 -11.21298
 Alpha  occ. eigenvalues --   -1.10712  -1.08439  -1.02116  -0.97412  -0.93716
 Alpha  occ. eigenvalues --   -0.92410  -0.87777  -0.81711  -0.70460  -0.69695
 Alpha  occ. eigenvalues --   -0.64283  -0.63079  -0.59595  -0.58686  -0.58536
 Alpha  occ. eigenvalues --   -0.56929  -0.55095  -0.54873  -0.53177  -0.52751
 Alpha  occ. eigenvalues --   -0.51785  -0.51129  -0.50640  -0.49304  -0.47959
 Alpha  occ. eigenvalues --   -0.46341  -0.44583  -0.33431  -0.31446
 Alpha virt. eigenvalues --    0.18430   0.19805   0.22980   0.24450   0.26533
 Alpha virt. eigenvalues --    0.26924   0.27866   0.28939   0.30370   0.30757
 Alpha virt. eigenvalues --    0.31381   0.32419   0.33235   0.33546   0.34254

 Mulliken charges:
               1
     1  C   -0.223805
     2  H    0.120996
     3  H    0.110989
     4  C    0.023432
     5  C   -0.349599
     6  H    0.120459
     7  H    0.116657
     8  H    0.125267
     9  C   -0.159258
    10  H    0.115715
    11  C   -0.353368
    12  H    0.115753
    13  H    0.119988
    14  H    0.120452
    15  C   -0.342640
    16  H    0.118796
    17  H    0.115478
    18  H    0.115860
    19  C    0.025392
    20  C   -0.349429
    21  H    0.122037
    22  H    0.120086
    23  H    0.118829
    24  C   -0.159710
    25  H    0.115891
    26  C   -0.243241
    27  H    0.117268
    28  H    0.121706
 Sum of Mulliken charges =  -0.00000

 Dipole moment (field-independent basis, Debye):
    X=              0.0902    Y=              0.0785    Z=              0.1304  Tot=              0.1769
 Quadrupole moment (field-independent basis, Debye-Ang):
   XX=            -63.7660   YY=            -63.3639   ZZ=            -67.0598
   XY=              1.0238   XZ=             -1.2582   YZ=              0.0091

 Normal termination of Gaussian 16 at Fri Sep 17 21:26:51 2021.
