 Gaussian 16, Revision A.03,
 Gaussian 16:  EM64L-G16RevA.03 25-Dec-2016

 ---------------------
 #p opt mp2/6-31g(d,p)
 ---------------------

 -------------------------------------------------
 Conformer number 028. Energy MM = 26.187 kcal/mol
 -------------------------------------------------
 Symbolic Z-matrix:
 Charge =  0 Multiplicity = 1

 SCF Done:  E(RHF) =  -389.150833628     A.U. after   13 cycles
 E2 =    -0.1419501229D+01 EUMP2 =    -0.39057033485625D+03
 SCF Done:  E(RHF) =  -389.153730635     A.U. after   11 cycles
 E2 =    -0.1418557072D+01 EUMP2 =    -0.39057228770717D+03
 SCF Done:  E(RHF) =  -389.153661190     A.U. after   11 cycles
 E2 =    -0.1419054756D+01 EUMP2 =    -0.39057271594595D+03
 SCF Done:  E(RHF) =  -389.153798326     A.U. after   11 cycles
 E2 =    -0.1419186110D+01 EUMP2 =    -0.39057298443601D+03
 SCF Done:  E(RHF) =  -389.153481969     A.U. after   13 cycles
 E2 =    -0.1419908111D+01 EUMP2 =    -0.39057339007999D+03
 SCF Done:  E(RHF) =  -389.150763034     A.U. after   13 cycles
 E2 =    -0.1422106244D+01 EUMP2 =    -0.39057286927828D+03
 SCF Done:  E(RHF) =  -389.153393099     A.U. after   10 cycles
 E2 =    -0.1420378025D+01 EUMP2 =    -0.39057377112431D+03
 SCF Done:  E(RHF) =  -389.152018131     A.U. after   11 cycles
 E2 =    -0.1422110448D+01 EUMP2 =    -0.39057412857899D+03
 SCF Done:  E(RHF) =  -389.153176769     A.U. after   10 cycles
 E2 =    -0.1421192851D+01 EUMP2 =    -0.39057436962074D+03
 SCF Done:  E(RHF) =  -389.153197462     A.U. after    9 cycles
 E2 =    -0.1421253573D+01 EUMP2 =    -0.39057445103472D+03
 E2 =    -0.1421409025D+01 EUMP2 =    -0.39057464578153D+03
 SCF Done:  E(RHF) =  -389.153519391     A.U. after   10 cycles
 E2 =    -0.1421191289D+01 EUMP2 =    -0.39057471068015D+03
 SCF Done:  E(RHF) =  -389.153284787     A.U. after    9 cycles
 E2 =    -0.1421450772D+01 EUMP2 =    -0.39057473555913D+03
 SCF Done:  E(RHF) =  -389.153396377     A.U. after    9 cycles
 E2 =    -0.1421344822D+01 EUMP2 =    -0.39057474119893D+03
 SCF Done:  E(RHF) =  -389.153420214     A.U. after    9 cycles
 E2 =    -0.1421329508D+01 EUMP2 =    -0.39057474972227D+03
 SCF Done:  E(RHF) =  -389.153433195     A.U. after    8 cycles
 E2 =    -0.1421317346D+01 EUMP2 =    -0.39057475054076D+03
 SCF Done:  E(RHF) =  -389.153436550     A.U. after    7 cycles
 E2 =    -0.1421314118D+01 EUMP2 =    -0.39057475066755D+03
 SCF Done:  E(RHF) =  -389.153439092     A.U. after    7 cycles
 E2 =    -0.1421311648D+01 EUMP2 =    -0.39057475073999D+03
 SCF Done:  E(RHF) =  -389.153439042     A.U. after    6 cycles
 E2 =    -0.1421311762D+01 EUMP2 =    -0.39057475080389D+03
 SCF Done:  E(RHF) =  -389.153439288     A.U. after    6 cycles
 E2 =    -0.1421311556D+01 EUMP2 =    -0.39057475084388D+03
 SCF Done:  E(RHF) =  -389.153437543     A.U. after    6 cycles
 E2 =    -0.1421313313D+01 EUMP2 =    -0.39057475085623D+03
 Optimization completed.
    -- Stationary point found.

                         Standard orientation:
 ---------------------------------------------------------------------
 Center     Atomic      Atomic             Coordinates (Angstroms)
 Number     Number       Type             X           Y           Z
 ---------------------------------------------------------------------
      1          6           0        0.965082   -1.581601   -0.722817
      2          1           0        1.663321   -2.408829   -0.560562
      3          1           0        0.817102   -1.494594   -1.801893
      4          6           0        1.553137   -0.306177   -0.177629
      5          6           0        2.280080   -0.450842    1.131633
      6          1           0        2.546900    0.502696    1.580098
      7          1           0        1.669269   -0.996488    1.853408
      8          1           0        3.197011   -1.028464    0.994230
      9          6           0        1.386340    0.852333   -0.843713
     10          1           0        0.846369    0.803343   -1.785061
     11          6           0        1.848866    2.221152   -0.447621
     12          1           0        2.395748    2.225756    0.491914
     13          1           0        2.500184    2.645891   -1.213731
     14          1           0        0.998551    2.898523   -0.344018
     15          6           0       -2.951794    1.006979   -0.429776
     16          1           0       -3.282552    0.641134   -1.400744
     17          1           0       -3.822541    1.073346    0.226549
     18          1           0       -2.573976    2.024141   -0.557894
     19          6           0       -1.895181    0.118182    0.166234
     20          6           0       -1.382883    0.564478    1.506297
     21          1           0       -0.661760   -0.125989    1.934612
     22          1           0       -0.897912    1.539006    1.417028
     23          1           0       -2.209426    0.680263    2.211208
     24          6           0       -1.468041   -0.978184   -0.487988
     25          1           0       -1.906407   -1.178275   -1.462898
     26          6           0       -0.390780   -1.930757   -0.067046
     27          1           0       -0.276810   -1.950680    1.017840
     28          1           0       -0.672028   -2.944160   -0.365531
 ---------------------------------------------------------------------

 The electronic state is 1-A.
 Alpha  occ. eigenvalues --  -11.22626 -11.22229 -11.21803 -11.21706 -11.21514
 Alpha  occ. eigenvalues --  -11.21420 -11.21336 -11.21298 -11.21196 -11.20892
 Alpha  occ. eigenvalues --   -1.10824  -1.07879  -1.01979  -0.97445  -0.93451
 Alpha  occ. eigenvalues --   -0.92061  -0.87983  -0.81604  -0.70067  -0.69690
 Alpha  occ. eigenvalues --   -0.64338  -0.61481  -0.61144  -0.58909  -0.57497
 Alpha  occ. eigenvalues --   -0.56690  -0.55228  -0.54097  -0.53582  -0.52879
 Alpha  occ. eigenvalues --   -0.52490  -0.50693  -0.50022  -0.49313  -0.48324
 Alpha  occ. eigenvalues --   -0.45209  -0.44966  -0.32245  -0.31883
 Alpha virt. eigenvalues --    0.18613   0.19272   0.22030   0.24538   0.26233
 Alpha virt. eigenvalues --    0.27089   0.28547   0.29149   0.30257   0.30285
 Alpha virt. eigenvalues --    0.31372   0.33020   0.33346   0.34447   0.34975

 Mulliken charges:
               1
     1  C   -0.228782
     2  H    0.110269
     3  H    0.118713
     4  C    0.015984
     5  C   -0.343062
     6  H    0.118056
     7  H    0.110644
     8  H    0.122396
     9  C   -0.138598
    10  H    0.117611
    11  C   -0.354377
    12  H    0.114842
    13  H    0.119946
    14  H    0.117215
    15  C   -0.344150
    16  H    0.117588
    17  H    0.115120
    18  H    0.114277
    19  C    0.041330
    20  C   -0.341401
    21  H    0.116116
    22  H    0.122425
    23  H    0.112699
    24  C   -0.159525
    25  H    0.112971
    26  C   -0.240215
    27  H    0.114138
    28  H    0.117770
 Sum of Mulliken charges =  -0.00000

 Dipole moment (field-independent basis, Debye):
    X=              0.0947    Y=              0.1724    Z=              0.2138  Tot=              0.2905
 Quadrupole moment (field-independent basis, Debye-Ang):
   XX=            -66.7204   YY=            -64.1857   ZZ=            -64.4609
   XY=             -1.1313   XZ=              1.4478   YZ=              0.3372

 Normal termination of Gaussian 16 at Fri Sep 17 22:26:28 2021.
