 Gaussian 16, Revision A.03,
 Gaussian 16:  EM64L-G16RevA.03 25-Dec-2016

 ---------------------
 #p opt mp2/6-31g(d,p)
 ---------------------

 -------------------------------------------------
 Conformer number 003. Energy MM = 26.148 kcal/mol
 -------------------------------------------------
 Symbolic Z-matrix:
 Charge =  0 Multiplicity = 1

 SCF Done:  E(RHF) =  -389.152788940     A.U. after   13 cycles
 E2 =    -0.1417597704D+01 EUMP2 =    -0.39057038664390D+03
 SCF Done:  E(RHF) =  -389.154284165     A.U. after   11 cycles
 E2 =    -0.1418078862D+01 EUMP2 =    -0.39057236302721D+03
 SCF Done:  E(RHF) =  -389.154622429     A.U. after   10 cycles
 E2 =    -0.1417987113D+01 EUMP2 =    -0.39057260954205D+03
 SCF Done:  E(RHF) =  -389.154638101     A.U. after   10 cycles
 E2 =    -0.1418247267D+01 EUMP2 =    -0.39057288536774D+03
 SCF Done:  E(RHF) =  -389.154740367     A.U. after   10 cycles
 E2 =    -0.1418313060D+01 EUMP2 =    -0.39057305342758D+03
 SCF Done:  E(RHF) =  -389.154799764     A.U. after    9 cycles
 E2 =    -0.1418310683D+01 EUMP2 =    -0.39057311044705D+03
 SCF Done:  E(RHF) =  -389.155117749     A.U. after   10 cycles
 E2 =    -0.1418205920D+01 EUMP2 =    -0.39057332366846D+03
 SCF Done:  E(RHF) =  -389.155402302     A.U. after   11 cycles
 E2 =    -0.1418301672D+01 EUMP2 =    -0.39057370397377D+03
 SCF Done:  E(RHF) =  -389.155454389     A.U. after   11 cycles
 E2 =    -0.1418501519D+01 EUMP2 =    -0.39057395590796D+03
 SCF Done:  E(RHF) =  -389.155333053     A.U. after   13 cycles
 E2 =    -0.1419090897D+01 EUMP2 =    -0.39057442394999D+03
 E2 =    -0.1419135207D+01 EUMP2 =    -0.39057448180182D+03
 E2 =    -0.1418726793D+01 EUMP2 =    -0.39057439728017D+03
 SCF Done:  E(RHF) =  -389.155433963     A.U. after   11 cycles
 E2 =    -0.1419062235D+01 EUMP2 =    -0.39057449619756D+03
 SCF Done:  E(RHF) =  -389.155489817     A.U. after    8 cycles
 E2 =    -0.1419004761D+01 EUMP2 =    -0.39057449457795D+03
 SCF Done:  E(RHF) =  -389.155387725     A.U. after    9 cycles
 E2 =    -0.1419113897D+01 EUMP2 =    -0.39057450162181D+03
 SCF Done:  E(RHF) =  -389.155478866     A.U. after    9 cycles
 E2 =    -0.1419021489D+01 EUMP2 =    -0.39057450035516D+03
 SCF Done:  E(RHF) =  -389.155412167     A.U. after    9 cycles
 E2 =    -0.1419091355D+01 EUMP2 =    -0.39057450352284D+03
 SCF Done:  E(RHF) =  -389.155432664     A.U. after    8 cycles
 E2 =    -0.1419070675D+01 EUMP2 =    -0.39057450333804D+03
 SCF Done:  E(RHF) =  -389.155409480     A.U. after    8 cycles
 E2 =    -0.1419094152D+01 EUMP2 =    -0.39057450363138D+03
 SCF Done:  E(RHF) =  -389.155411771     A.U. after    6 cycles
 E2 =    -0.1419091880D+01 EUMP2 =    -0.39057450365069D+03
 SCF Done:  E(RHF) =  -389.155412956     A.U. after    6 cycles
 E2 =    -0.1419090714D+01 EUMP2 =    -0.39057450367063D+03
 SCF Done:  E(RHF) =  -389.155412477     A.U. after    5 cycles
 E2 =    -0.1419091198D+01 EUMP2 =    -0.39057450367506D+03
 Optimization completed.
    -- Stationary point found.

                         Standard orientation:
 ---------------------------------------------------------------------
 Center     Atomic      Atomic             Coordinates (Angstroms)
 Number     Number       Type             X           Y           Z
 ---------------------------------------------------------------------
      1          6           0       -0.983974   -1.546514   -0.768760
      2          1           0       -1.192135   -1.372970   -1.827664
      3          1           0       -1.438631   -2.508530   -0.507335
      4          6           0       -1.606740   -0.446936    0.051636
      5          6           0       -1.409231   -0.567862    1.537930
      6          1           0       -2.065003    0.088582    2.104336
      7          1           0       -1.601447   -1.592632    1.862414
      8          1           0       -0.379359   -0.329184    1.809940
      9          6           0       -2.258561    0.563371   -0.553732
     10          1           0       -2.320557    0.531792   -1.638167
     11          6           0       -2.915639    1.749362    0.083871
     12          1           0       -2.825149    1.747564    1.167054
     13          1           0       -2.470226    2.675800   -0.283290
     14          1           0       -3.977551    1.786473   -0.166087
     15          6           0        2.637889    1.656562   -0.553454
     16          1           0        2.254180    1.931967   -1.534574
     17          1           0        2.386136    2.454730    0.148660
     18          1           0        3.728137    1.616758   -0.609967
     19          6           0        2.075534    0.340661   -0.089499
     20          6           0        2.565926   -0.101514    1.261627
     21          1           0        2.149180   -1.053986    1.578277
     22          1           0        3.653994   -0.197892    1.254206
     23          1           0        2.321532    0.646962    2.018780
     24          6           0        1.214644   -0.346761   -0.863208
     25          1           0        0.952859    0.091336   -1.824049
     26          6           0        0.538682   -1.650734   -0.567570
     27          1           0        0.922129   -2.430590   -1.233742
     28          1           0        0.750728   -1.983985    0.448159
 ---------------------------------------------------------------------

 The electronic state is 1-A.
 Alpha  occ. eigenvalues --  -11.22744 -11.22316 -11.21839 -11.21740 -11.21605
 Alpha  occ. eigenvalues --  -11.21315 -11.21306 -11.21252 -11.21234 -11.21216
 Alpha  occ. eigenvalues --   -1.10881  -1.08081  -1.02121  -0.97148  -0.93656
 Alpha  occ. eigenvalues --   -0.92312  -0.88050  -0.81320  -0.70371  -0.69836
 Alpha  occ. eigenvalues --   -0.64406  -0.62078  -0.60323  -0.59014  -0.57403
 Alpha  occ. eigenvalues --   -0.56888  -0.55181  -0.54558  -0.53459  -0.52929
 Alpha  occ. eigenvalues --   -0.52429  -0.51367  -0.49777  -0.49032  -0.48171
 Alpha  occ. eigenvalues --   -0.45585  -0.44879  -0.32481  -0.31922
 Alpha virt. eigenvalues --    0.18687   0.20046   0.22372   0.25238   0.25736
 Alpha virt. eigenvalues --    0.27047   0.28442   0.29463   0.29882   0.30879
 Alpha virt. eigenvalues --    0.31869   0.32430   0.33268   0.33451   0.34842

 Mulliken charges:
               1
     1  C   -0.234461
     2  H    0.113111
     3  H    0.115124
     4  C    0.042066
     5  C   -0.354003
     6  H    0.118860
     7  H    0.113553
     8  H    0.131032
     9  C   -0.157674
    10  H    0.112862
    11  C   -0.352862
    12  H    0.115002
    13  H    0.120209
    14  H    0.118616
    15  C   -0.341269
    16  H    0.118838
    17  H    0.115217
    18  H    0.114001
    19  C    0.014263
    20  C   -0.349265
    21  H    0.117073
    22  H    0.120307
    23  H    0.118190
    24  C   -0.135621
    25  H    0.115867
    26  C   -0.246118
    27  H    0.123559
    28  H    0.113524
 Sum of Mulliken charges =  -0.00000

 Dipole moment (field-independent basis, Debye):
    X=              0.2427    Y=              0.0019    Z=              0.2998  Tot=              0.3857
 Quadrupole moment (field-independent basis, Debye-Ang):
   XX=            -66.5752   YY=            -64.4943   ZZ=            -63.8504
   XY=             -0.0596   XZ=              0.9359   YZ=             -0.3703

 Normal termination of Gaussian 16 at Fri Sep 17 21:29:45 2021.
