 Gaussian 16, Revision A.03,
 Gaussian 16:  EM64L-G16RevA.03 25-Dec-2016

 ---------------------
 #p opt mp2/6-31g(d,p)
 ---------------------

 -------------------------------------------------
 Conformer number 040. Energy MM = 29.379 kcal/mol
 -------------------------------------------------
 Symbolic Z-matrix:
 Charge =  0 Multiplicity = 1

 SCF Done:  E(RHF) =  -389.144668058     A.U. after   12 cycles
 E2 =    -0.1421017794D+01 EUMP2 =    -0.39056568585168D+03
 SCF Done:  E(RHF) =  -389.149540253     A.U. after   11 cycles
 E2 =    -0.1419324422D+01 EUMP2 =    -0.39056886467524D+03
 SCF Done:  E(RHF) =  -389.148686283     A.U. after   11 cycles
 E2 =    -0.1420615905D+01 EUMP2 =    -0.39056930218844D+03
 SCF Done:  E(RHF) =  -389.150237753     A.U. after   11 cycles
 E2 =    -0.1419643967D+01 EUMP2 =    -0.39056988171940D+03
 SCF Done:  E(RHF) =  -389.151455975     A.U. after   11 cycles
 E2 =    -0.1419380940D+01 EUMP2 =    -0.39057083691531D+03
 SCF Done:  E(RHF) =  -389.152034577     A.U. after   13 cycles
 E2 =    -0.1418563993D+01 EUMP2 =    -0.39057059857070D+03
 SCF Done:  E(RHF) =  -389.153386023     A.U. after   10 cycles
 E2 =    -0.1418429756D+01 EUMP2 =    -0.39057181577857D+03
 SCF Done:  E(RHF) =  -389.153448055     A.U. after   10 cycles
 E2 =    -0.1418475477D+01 EUMP2 =    -0.39057192353161D+03
 SCF Done:  E(RHF) =  -389.153432712     A.U. after   10 cycles
 E2 =    -0.1418559588D+01 EUMP2 =    -0.39057199230013D+03
 SCF Done:  E(RHF) =  -389.153435818     A.U. after    9 cycles
 E2 =    -0.1418581462D+01 EUMP2 =    -0.39057201728047D+03
 E2 =    -0.1418622427D+01 EUMP2 =    -0.39057204833646D+03
 E2 =    -0.1418645451D+01 EUMP2 =    -0.39057206832610D+03
 SCF Done:  E(RHF) =  -389.153446988     A.U. after    9 cycles
 E2 =    -0.1418641195D+01 EUMP2 =    -0.39057208818325D+03
 SCF Done:  E(RHF) =  -389.153458350     A.U. after    9 cycles
 E2 =    -0.1418636327D+01 EUMP2 =    -0.39057209467725D+03
 SCF Done:  E(RHF) =  -389.153471298     A.U. after    8 cycles
 E2 =    -0.1418624555D+01 EUMP2 =    -0.39057209585278D+03
 SCF Done:  E(RHF) =  -389.153472682     A.U. after    8 cycles
 E2 =    -0.1418623446D+01 EUMP2 =    -0.39057209612786D+03
 SCF Done:  E(RHF) =  -389.153472308     A.U. after    7 cycles
 E2 =    -0.1418624008D+01 EUMP2 =    -0.39057209631623D+03
 SCF Done:  E(RHF) =  -389.153475290     A.U. after    7 cycles
 E2 =    -0.1418621154D+01 EUMP2 =    -0.39057209644418D+03
 SCF Done:  E(RHF) =  -389.153480259     A.U. after    7 cycles
 E2 =    -0.1418616366D+01 EUMP2 =    -0.39057209662465D+03
 SCF Done:  E(RHF) =  -389.153479857     A.U. after    6 cycles
 E2 =    -0.1418616818D+01 EUMP2 =    -0.39057209667452D+03
 SCF Done:  E(RHF) =  -389.153479785     A.U. after    6 cycles
 E2 =    -0.1418616907D+01 EUMP2 =    -0.39057209669205D+03
 SCF Done:  E(RHF) =  -389.153477661     A.U. after    6 cycles
 E2 =    -0.1418619032D+01 EUMP2 =    -0.39057209669306D+03
 Optimization completed.
    -- Stationary point found.

                         Standard orientation:
 ---------------------------------------------------------------------
 Center     Atomic      Atomic             Coordinates (Angstroms)
 Number     Number       Type             X           Y           Z
 ---------------------------------------------------------------------
      1          6           0        1.124523   -1.566077   -0.232966
      2          1           0        1.139694   -2.156936    0.690867
      3          1           0        1.718302   -2.143510   -0.951203
      4          6           0        1.843636   -0.261970    0.027190
      5          6           0        3.206709   -0.455768    0.635594
      6          1           0        3.754382    0.473020    0.768733
      7          1           0        3.121184   -0.938918    1.611436
      8          1           0        3.810963   -1.115006    0.008551
      9          6           0        1.308401    0.932652   -0.283435
     10          1           0        0.310589    0.943521   -0.703220
     11          6           0        1.917433    2.289849   -0.097349
     12          1           0        2.919304    2.254713    0.322354
     13          1           0        1.973668    2.818513   -1.050731
     14          1           0        1.299369    2.898058    0.565866
     15          6           0       -3.077014    0.401866    1.315847
     16          1           0       -2.806252   -0.136456    2.222849
     17          1           0       -2.974058    1.472112    1.509652
     18          1           0       -4.133945    0.217561    1.110353
     19          6           0       -2.222411   -0.014206    0.150168
     20          6           0       -2.537822    0.693291   -1.138325
     21          1           0       -1.917527    0.365804   -1.968552
     22          1           0       -3.581443    0.528590   -1.415301
     23          1           0       -2.409270    1.771958   -1.020590
     24          6           0       -1.259888   -0.942627    0.301205
     25          1           0       -1.140254   -1.377747    1.291382
     26          6           0       -0.319837   -1.487583   -0.733998
     27          1           0       -0.630983   -2.503619   -0.999235
     28          1           0       -0.356101   -0.908211   -1.656795
 ---------------------------------------------------------------------

 The electronic state is 1-A.
 Alpha  occ. eigenvalues --  -11.22686 -11.22358 -11.21942 -11.21829 -11.21617
 Alpha  occ. eigenvalues --  -11.21343 -11.21320 -11.21276 -11.21210 -11.21081
 Alpha  occ. eigenvalues --   -1.10786  -1.08087  -1.02024  -0.97716  -0.93690
 Alpha  occ. eigenvalues --   -0.91841  -0.87599  -0.82525  -0.70620  -0.68858
 Alpha  occ. eigenvalues --   -0.64364  -0.62000  -0.59841  -0.59305  -0.58218
 Alpha  occ. eigenvalues --   -0.57455  -0.55135  -0.53680  -0.53149  -0.52864
 Alpha  occ. eigenvalues --   -0.52489  -0.51416  -0.50332  -0.49626  -0.46907
 Alpha  occ. eigenvalues --   -0.45822  -0.45194  -0.33141  -0.31217
 Alpha virt. eigenvalues --    0.18829   0.19895   0.23128   0.24461   0.25631
 Alpha virt. eigenvalues --    0.26760   0.28970   0.29284   0.30688   0.30910
 Alpha virt. eigenvalues --    0.32104   0.32488   0.33232   0.33803   0.34585

 Mulliken charges:
               1
     1  C   -0.214551
     2  H    0.108908
     3  H    0.117469
     4  C    0.010872
     5  C   -0.346959
     6  H    0.117785
     7  H    0.118829
     8  H    0.116432
     9  C   -0.143368
    10  H    0.124932
    11  C   -0.353943
    12  H    0.114038
    13  H    0.117499
    14  H    0.119848
    15  C   -0.341124
    16  H    0.118779
    17  H    0.114871
    18  H    0.114195
    19  C    0.012673
    20  C   -0.352828
    21  H    0.119043
    22  H    0.121455
    23  H    0.118712
    24  C   -0.135095
    25  H    0.116046
    26  C   -0.257822
    27  H    0.125555
    28  H    0.117749
 Sum of Mulliken charges =  -0.00000

 Dipole moment (field-independent basis, Debye):
    X=             -0.0600    Y=             -0.0056    Z=             -0.0694  Tot=              0.0919
 Quadrupole moment (field-independent basis, Debye-Ang):
   XX=            -64.4231   YY=            -64.2843   ZZ=            -65.4187
   XY=             -1.5940   XZ=              0.7448   YZ=             -0.4484

 Normal termination of Gaussian 16 at Fri Sep 17 22:24:47 2021.
