 Gaussian 16, Revision A.03,
 Gaussian 16:  EM64L-G16RevA.03 25-Dec-2016

 ---------------------
 #p opt mp2/6-31g(d,p)
 ---------------------

 -------------------------------------------------
 Conformer number 005. Energy MM = 25.430 kcal/mol
 -------------------------------------------------
 Symbolic Z-matrix:
 Charge =  0 Multiplicity = 1

 SCF Done:  E(RHF) =  -389.152921603     A.U. after   13 cycles
 E2 =    -0.1417320071D+01 EUMP2 =    -0.39057024167402D+03
 SCF Done:  E(RHF) =  -389.155288193     A.U. after   11 cycles
 E2 =    -0.1416751593D+01 EUMP2 =    -0.39057203978599D+03
 SCF Done:  E(RHF) =  -389.155564273     A.U. after   10 cycles
 E2 =    -0.1416870621D+01 EUMP2 =    -0.39057243489392D+03
 SCF Done:  E(RHF) =  -389.155834904     A.U. after   10 cycles
 E2 =    -0.1416951050D+01 EUMP2 =    -0.39057278595474D+03
 SCF Done:  E(RHF) =  -389.156338359     A.U. after   10 cycles
 E2 =    -0.1416754244D+01 EUMP2 =    -0.39057309260315D+03
 SCF Done:  E(RHF) =  -389.156645226     A.U. after   10 cycles
 E2 =    -0.1416580100D+01 EUMP2 =    -0.39057322532610D+03
 SCF Done:  E(RHF) =  -389.156738587     A.U. after    9 cycles
 E2 =    -0.1416503730D+01 EUMP2 =    -0.39057324231676D+03
 SCF Done:  E(RHF) =  -389.156763379     A.U. after    9 cycles
 E2 =    -0.1416486329D+01 EUMP2 =    -0.39057324970748D+03
 SCF Done:  E(RHF) =  -389.156785097     A.U. after    9 cycles
 E2 =    -0.1416466674D+01 EUMP2 =    -0.39057325177094D+03
 SCF Done:  E(RHF) =  -389.156805228     A.U. after    9 cycles
 E2 =    -0.1416449172D+01 EUMP2 =    -0.39057325440028D+03
 SCF Done:  E(RHF) =  -389.156858396     A.U. after    9 cycles
 E2 =    -0.1416399566D+01 EUMP2 =    -0.39057325796202D+03
 SCF Done:  E(RHF) =  -389.156920050     A.U. after    9 cycles
 E2 =    -0.1416340907D+01 EUMP2 =    -0.39057326095722D+03
 SCF Done:  E(RHF) =  -389.156940224     A.U. after    9 cycles
 E2 =    -0.1416321383D+01 EUMP2 =    -0.39057326160709D+03
 SCF Done:  E(RHF) =  -389.156947737     A.U. after    8 cycles
 E2 =    -0.1416314037D+01 EUMP2 =    -0.39057326177476D+03
 SCF Done:  E(RHF) =  -389.156944299     A.U. after    7 cycles
 E2 =    -0.1416317499D+01 EUMP2 =    -0.39057326179786D+03
 SCF Done:  E(RHF) =  -389.156942747     A.U. after    7 cycles
 E2 =    -0.1416319058D+01 EUMP2 =    -0.39057326180465D+03
 Optimization completed.
    -- Stationary point found.

                         Standard orientation:
 ---------------------------------------------------------------------
 Center     Atomic      Atomic             Coordinates (Angstroms)
 Number     Number       Type             X           Y           Z
 ---------------------------------------------------------------------
      1          6           0       -0.553469   -0.454828   -0.655960
      2          1           0       -0.240249    0.428370   -1.217522
      3          1           0       -0.454632   -1.311596   -1.331886
      4          6           0       -1.990288   -0.307715   -0.225933
      5          6           0       -2.601190   -1.522270    0.421618
      6          1           0       -3.685996   -1.470164    0.469575
      7          1           0       -2.335339   -2.419139   -0.140981
      8          1           0       -2.229589   -1.661041    1.438562
      9          6           0       -2.628909    0.864404   -0.403334
     10          1           0       -2.071665    1.661909   -0.887478
     11          6           0       -4.032294    1.216965   -0.014023
     12          1           0       -4.545652    0.401587    0.489059
     13          1           0       -4.037404    2.075785    0.659585
     14          1           0       -4.620161    1.497387   -0.889953
     15          6           0        4.171770   -0.183366   -0.473853
     16          1           0        4.237865   -1.210627   -0.829010
     17          1           0        4.429559    0.482405   -1.300603
     18          1           0        4.931386   -0.038364    0.297695
     19          6           0        2.800908    0.130406    0.059506
     20          6           0        2.634379    1.533850    0.572442
     21          1           0        1.625692    1.743538    0.918369
     22          1           0        3.324951    1.723849    1.397115
     23          1           0        2.876673    2.252179   -0.213675
     24          6           0        1.831749   -0.804131    0.061098
     25          1           0        2.077213   -1.777416   -0.357045
     26          6           0        0.414784   -0.646994    0.525585
     27          1           0        0.125869   -1.536621    1.090966
     28          1           0        0.306840    0.200034    1.204351
 ---------------------------------------------------------------------

 The electronic state is 1-A.
 Alpha  occ. eigenvalues --  -11.22919 -11.22524 -11.21711 -11.21626 -11.21570
 Alpha  occ. eigenvalues --  -11.21559 -11.21513 -11.21455 -11.21402 -11.21298
 Alpha  occ. eigenvalues --   -1.10712  -1.08439  -1.02116  -0.97412  -0.93716
 Alpha  occ. eigenvalues --   -0.92410  -0.87777  -0.81712  -0.70460  -0.69696
 Alpha  occ. eigenvalues --   -0.64283  -0.63079  -0.59595  -0.58686  -0.58536
 Alpha  occ. eigenvalues --   -0.56929  -0.55095  -0.54874  -0.53177  -0.52751
 Alpha  occ. eigenvalues --   -0.51785  -0.51129  -0.50641  -0.49305  -0.47959
 Alpha  occ. eigenvalues --   -0.46341  -0.44583  -0.33431  -0.31446
 Alpha virt. eigenvalues --    0.18430   0.19806   0.22980   0.24450   0.26532
 Alpha virt. eigenvalues --    0.26923   0.27865   0.28938   0.30367   0.30755
 Alpha virt. eigenvalues --    0.31383   0.32418   0.33233   0.33547   0.34254

 Mulliken charges:
               1
     1  C   -0.223801
     2  H    0.120998
     3  H    0.110988
     4  C    0.023428
     5  C   -0.349583
     6  H    0.120448
     7  H    0.116660
     8  H    0.125259
     9  C   -0.159257
    10  H    0.115713
    11  C   -0.353362
    12  H    0.115747
    13  H    0.119998
    14  H    0.120442
    15  C   -0.342639
    16  H    0.118796
    17  H    0.115469
    18  H    0.115869
    19  C    0.025393
    20  C   -0.349428
    21  H    0.122035
    22  H    0.120082
    23  H    0.118832
    24  C   -0.159711
    25  H    0.115892
    26  C   -0.243239
    27  H    0.117266
    28  H    0.121707
 Sum of Mulliken charges =  -0.00000

 Dipole moment (field-independent basis, Debye):
    X=              0.0903    Y=              0.0785    Z=              0.1306  Tot=              0.1771
 Quadrupole moment (field-independent basis, Debye-Ang):
   XX=            -63.7663   YY=            -63.3634   ZZ=            -67.0603
   XY=              1.0233   XZ=             -1.2582   YZ=              0.0090

 Normal termination of Gaussian 16 at Fri Sep 17 21:06:45 2021.
