 Gaussian 16, Revision A.03,
 Gaussian 16:  EM64L-G16RevA.03 25-Dec-2016

 ---------------------
 #p opt mp2/6-31g(d,p)
 ---------------------

 -------------------------------------------------
 Conformer number 041. Energy MM = 26.841 kcal/mol
 -------------------------------------------------
 Symbolic Z-matrix:
 Charge =  0 Multiplicity = 1

 SCF Done:  E(RHF) =  -389.149232450     A.U. after   13 cycles
 E2 =    -0.1421680204D+01 EUMP2 =    -0.39057091265326D+03
 SCF Done:  E(RHF) =  -389.151536399     A.U. after   11 cycles
 E2 =    -0.1421158279D+01 EUMP2 =    -0.39057269467826D+03
 SCF Done:  E(RHF) =  -389.152932568     A.U. after   10 cycles
 E2 =    -0.1419877494D+01 EUMP2 =    -0.39057281006164D+03
 SCF Done:  E(RHF) =  -389.152221493     A.U. after   10 cycles
 E2 =    -0.1420732194D+01 EUMP2 =    -0.39057295368675D+03
 SCF Done:  E(RHF) =  -389.152413716     A.U. after    9 cycles
 E2 =    -0.1420575331D+01 EUMP2 =    -0.39057298904705D+03
 SCF Done:  E(RHF) =  -389.152538464     A.U. after    9 cycles
 E2 =    -0.1420471733D+01 EUMP2 =    -0.39057301019639D+03
 SCF Done:  E(RHF) =  -389.152670012     A.U. after    9 cycles
 E2 =    -0.1420356836D+01 EUMP2 =    -0.39057302684881D+03
 SCF Done:  E(RHF) =  -389.152813880     A.U. after    9 cycles
 E2 =    -0.1420221767D+01 EUMP2 =    -0.39057303564729D+03
 SCF Done:  E(RHF) =  -389.153037798     A.U. after    9 cycles
 E2 =    -0.1420038110D+01 EUMP2 =    -0.39057307590764D+03
 SCF Done:  E(RHF) =  -389.090304075     A.U. after   14 cycles
 E2 =    -0.1441881347D+01 EUMP2 =    -0.39053218542173D+03
 E2 =    -0.1420473165D+01 EUMP2 =    -0.39057306596450D+03
 E2 =    -0.1420282823D+01 EUMP2 =    -0.39057316120982D+03
 E2 =    -0.1419991863D+01 EUMP2 =    -0.39057347190802D+03
 E2 =    -0.1419689003D+01 EUMP2 =    -0.39057214731326D+03
 E2 =    -0.1420339318D+01 EUMP2 =    -0.39057365869599D+03
 SCF Done:  E(RHF) =  -389.153757084     A.U. after   12 cycles
 E2 =    -0.1419761316D+01 EUMP2 =    -0.39057351840004D+03
 SCF Done:  E(RHF) =  -389.153703351     A.U. after   11 cycles
 E2 =    -0.1420048991D+01 EUMP2 =    -0.39057375234219D+03
 SCF Done:  E(RHF) =  -389.153543736     A.U. after    9 cycles
 E2 =    -0.1420222479D+01 EUMP2 =    -0.39057376621510D+03
 SCF Done:  E(RHF) =  -389.153522850     A.U. after    9 cycles
 E2 =    -0.1420248732D+01 EUMP2 =    -0.39057377158170D+03
 SCF Done:  E(RHF) =  -389.153475164     A.U. after    8 cycles
 E2 =    -0.1420297542D+01 EUMP2 =    -0.39057377270634D+03
 SCF Done:  E(RHF) =  -389.153454450     A.U. after    8 cycles
 E2 =    -0.1420318845D+01 EUMP2 =    -0.39057377329520D+03
 SCF Done:  E(RHF) =  -389.153449214     A.U. after    7 cycles
 E2 =    -0.1420324198D+01 EUMP2 =    -0.39057377341166D+03
 SCF Done:  E(RHF) =  -389.153448109     A.U. after    7 cycles
 E2 =    -0.1420325421D+01 EUMP2 =    -0.39057377352989D+03
 SCF Done:  E(RHF) =  -389.153448986     A.U. after    7 cycles
 E2 =    -0.1420324604D+01 EUMP2 =    -0.39057377359003D+03
 SCF Done:  E(RHF) =  -389.153450889     A.U. after    7 cycles
 E2 =    -0.1420322735D+01 EUMP2 =    -0.39057377362397D+03
 Optimization completed.
    -- Stationary point found.

                         Standard orientation:
 ---------------------------------------------------------------------
 Center     Atomic      Atomic             Coordinates (Angstroms)
 Number     Number       Type             X           Y           Z
 ---------------------------------------------------------------------
      1          6           0        0.855517    1.785109   -0.166045
      2          1           0        1.567996    2.289389   -0.823836
      3          1           0        0.666515    2.461467    0.672395
      4          6           0        1.453149    0.491121    0.341934
      5          6           0        1.146428    0.146267    1.772526
      6          1           0        1.543066   -0.820607    2.072661
      7          1           0        1.566352    0.903935    2.438114
      8          1           0        0.067787    0.137462    1.931039
      9          6           0        2.189699   -0.263817   -0.495395
     10          1           0        2.343469    0.124200   -1.500181
     11          6           0        2.831498   -1.590802   -0.226873
     12          1           0        2.668744   -1.936776    0.790600
     13          1           0        2.440069   -2.352002   -0.904684
     14          1           0        3.908931   -1.540466   -0.394179
     15          6           0       -3.063352   -0.779267    0.796881
     16          1           0       -3.426388    0.037387    1.419293
     17          1           0       -3.907667   -1.179717    0.231053
     18          1           0       -2.713411   -1.580589    1.451828
     19          6           0       -1.966184   -0.326634   -0.127512
     20          6           0       -1.420631   -1.402941   -1.023882
     21          1           0       -0.602798   -1.059447   -1.650408
     22          1           0       -1.049198   -2.235197   -0.421759
     23          1           0       -2.210053   -1.802591   -1.664820
     24          6           0       -1.538736    0.950695   -0.110894
     25          1           0       -2.008866    1.622758    0.603876
     26          6           0       -0.456243    1.565192   -0.945603
     27          1           0       -0.237187    0.949583   -1.818473
     28          1           0       -0.804226    2.531678   -1.323340
 ---------------------------------------------------------------------

 The electronic state is 1-A.
 Alpha  occ. eigenvalues --  -11.22905 -11.22417 -11.21815 -11.21726 -11.21476
 Alpha  occ. eigenvalues --  -11.21353 -11.21281 -11.21253 -11.21241 -11.20943
 Alpha  occ. eigenvalues --   -1.10825  -1.08027  -1.01971  -0.97278  -0.93554
 Alpha  occ. eigenvalues --   -0.92408  -0.87489  -0.81946  -0.70430  -0.69260
 Alpha  occ. eigenvalues --   -0.63913  -0.62527  -0.59472  -0.59238  -0.58024
 Alpha  occ. eigenvalues --   -0.57118  -0.55205  -0.53892  -0.53053  -0.52843
 Alpha  occ. eigenvalues --   -0.52471  -0.51202  -0.50222  -0.49364  -0.47951
 Alpha  occ. eigenvalues --   -0.45451  -0.44723  -0.33174  -0.31263
 Alpha virt. eigenvalues --    0.18604   0.18963   0.22659   0.25755   0.25952
 Alpha virt. eigenvalues --    0.27103   0.28218   0.29765   0.29955   0.30982
 Alpha virt. eigenvalues --    0.31949   0.32549   0.32836   0.33437   0.34117

 Mulliken charges:
               1
     1  C   -0.234769
     2  H    0.122070
     3  H    0.110447
     4  C    0.023555
     5  C   -0.348228
     6  H    0.112034
     7  H    0.116273
     8  H    0.131427
     9  C   -0.154803
    10  H    0.110641
    11  C   -0.350342
    12  H    0.115618
    13  H    0.117565
    14  H    0.118928
    15  C   -0.343616
    16  H    0.117860
    17  H    0.116718
    18  H    0.115281
    19  C    0.029615
    20  C   -0.344029
    21  H    0.127139
    22  H    0.118350
    23  H    0.114734
    24  C   -0.163653
    25  H    0.114915
    26  C   -0.226137
    27  H    0.117746
    28  H    0.114660
 Sum of Mulliken charges =  -0.00000

 Dipole moment (field-independent basis, Debye):
    X=             -0.1610    Y=             -0.1826    Z=              0.0695  Tot=              0.2532
 Quadrupole moment (field-independent basis, Debye-Ang):
   XX=            -66.8065   YY=            -63.9417   ZZ=            -64.7098
   XY=              0.0088   XZ=             -1.4132   YZ=              0.2957

 Normal termination of Gaussian 16 at Fri Sep 17 22:49:06 2021.
