 Gaussian 16, Revision A.03,
 Gaussian 16:  EM64L-G16RevA.03 25-Dec-2016

 ---------------------
 #p opt mp2/6-31g(d,p)
 ---------------------

 -------------------------------------------------
 Conformer number 024. Energy MM = 27.980 kcal/mol
 -------------------------------------------------
 Symbolic Z-matrix:
 Charge =  0 Multiplicity = 1

 SCF Done:  E(RHF) =  -389.148798696     A.U. after   12 cycles
 E2 =    -0.1418001576D+01 EUMP2 =    -0.39056680027167D+03
 SCF Done:  E(RHF) =  -389.151218290     A.U. after   11 cycles
 E2 =    -0.1418010673D+01 EUMP2 =    -0.39056922896315D+03
 SCF Done:  E(RHF) =  -389.152515232     A.U. after   11 cycles
 E2 =    -0.1417568193D+01 EUMP2 =    -0.39057008342581D+03
 SCF Done:  E(RHF) =  -389.151400059     A.U. after   13 cycles
 E2 =    -0.1418230651D+01 EUMP2 =    -0.39056963070925D+03
 SCF Done:  E(RHF) =  -389.153188429     A.U. after   11 cycles
 E2 =    -0.1417416561D+01 EUMP2 =    -0.39057060498964D+03
 SCF Done:  E(RHF) =  -389.153350335     A.U. after    9 cycles
 E2 =    -0.1417524313D+01 EUMP2 =    -0.39057087464756D+03
 SCF Done:  E(RHF) =  -389.153470422     A.U. after   10 cycles
 E2 =    -0.1417664310D+01 EUMP2 =    -0.39057113473142D+03
 SCF Done:  E(RHF) =  -389.153759473     A.U. after   10 cycles
 E2 =    -0.1417540704D+01 EUMP2 =    -0.39057130017698D+03
 SCF Done:  E(RHF) =  -389.153790223     A.U. after   10 cycles
 E2 =    -0.1417546879D+01 EUMP2 =    -0.39057133710244D+03
 SCF Done:  E(RHF) =  -389.153766246     A.U. after    9 cycles
 E2 =    -0.1417584227D+01 EUMP2 =    -0.39057135047223D+03
 E2 =    -0.1417714083D+01 EUMP2 =    -0.39057138274439D+03
 E2 =    -0.1417828222D+01 EUMP2 =    -0.39057139404545D+03
 E2 =    -0.1417786755D+01 EUMP2 =    -0.39057142093513D+03
 E2 =    -0.1417648184D+01 EUMP2 =    -0.39057145889407D+03
 E2 =    -0.1418492131D+01 EUMP2 =    -0.39057144437479D+03
 E2 =    -0.1418171101D+01 EUMP2 =    -0.39057065615393D+03
 E2 =    -0.1417713681D+01 EUMP2 =    -0.39057046293324D+03
 E2 =    -0.1417640880D+01 EUMP2 =    -0.39057146008213D+03
 E2 =    -0.1418468035D+01 EUMP2 =    -0.39057136801681D+03
 E2 =    -0.1418207405D+01 EUMP2 =    -0.39057121133569D+03
 E2 =    -0.1417955190D+01 EUMP2 =    -0.39057183336680D+03
 E2 =    -0.1419115676D+01 EUMP2 =    -0.39057190060489D+03
 E2 =    -0.1418351365D+01 EUMP2 =    -0.39057205205689D+03
 E2 =    -0.1418205421D+01 EUMP2 =    -0.39057196727247D+03
 E2 =    -0.1417346386D+01 EUMP2 =    -0.39057111119673D+03
 E2 =    -0.1417807171D+01 EUMP2 =    -0.39057174410828D+03
 E2 =    -0.1419478270D+01 EUMP2 =    -0.39056918423844D+03
 E2 =    -0.1418358452D+01 EUMP2 =    -0.39057205262158D+03
 E2 =    -0.1418959448D+01 EUMP2 =    -0.39057199372846D+03
 E2 =    -0.1418586284D+01 EUMP2 =    -0.39057208575447D+03
 SCF Done:  E(RHF) =  -389.153567440     A.U. after   10 cycles
 E2 =    -0.1418509778D+01 EUMP2 =    -0.39057207721766D+03
 SCF Done:  E(RHF) =  -389.153451852     A.U. after   10 cycles
 E2 =    -0.1418640497D+01 EUMP2 =    -0.39057209234900D+03
 SCF Done:  E(RHF) =  -389.153599066     A.U. after   10 cycles
 E2 =    -0.1418481141D+01 EUMP2 =    -0.39057208020695D+03
 SCF Done:  E(RHF) =  -389.153477012     A.U. after   10 cycles
 E2 =    -0.1418618632D+01 EUMP2 =    -0.39057209564373D+03
 SCF Done:  E(RHF) =  -389.153557904     A.U. after    9 cycles
 E2 =    -0.1418533048D+01 EUMP2 =    -0.39057209095173D+03
 SCF Done:  E(RHF) =  -389.153480454     A.U. after    9 cycles
 E2 =    -0.1418615614D+01 EUMP2 =    -0.39057209606759D+03
 SCF Done:  E(RHF) =  -389.153481945     A.U. after    8 cycles
 E2 =    -0.1418614363D+01 EUMP2 =    -0.39057209630826D+03
 SCF Done:  E(RHF) =  -389.153481784     A.U. after    7 cycles
 E2 =    -0.1418614695D+01 EUMP2 =    -0.39057209647964D+03
 SCF Done:  E(RHF) =  -389.153481546     A.U. after    7 cycles
 E2 =    -0.1418615059D+01 EUMP2 =    -0.39057209660508D+03
 SCF Done:  E(RHF) =  -389.153478697     A.U. after    6 cycles
 E2 =    -0.1418617986D+01 EUMP2 =    -0.39057209668317D+03
 Optimization completed.
    -- Stationary point found.

                         Standard orientation:
 ---------------------------------------------------------------------
 Center     Atomic      Atomic             Coordinates (Angstroms)
 Number     Number       Type             X           Y           Z
 ---------------------------------------------------------------------
      1          6           0       -1.124358   -1.566057   -0.232836
      2          1           0       -1.718241   -2.143596   -0.950903
      3          1           0       -1.139305   -2.156854    0.691039
      4          6           0       -1.843604   -0.262004    0.027324
      5          6           0       -3.206940   -0.456010    0.635074
      6          1           0       -3.754531    0.472774    0.768585
      7          1           0       -3.811050   -1.114771    0.007388
      8          1           0       -3.121855   -0.939778    1.610648
      9          6           0       -1.308353    0.932728   -0.282818
     10          1           0       -0.310381    0.943815   -0.702215
     11          6           0       -1.917624    2.289822   -0.096692
     12          1           0       -2.919524    2.254496    0.322928
     13          1           0       -1.299695    2.898067    0.566610
     14          1           0       -1.973868    2.818538   -1.050046
     15          6           0        3.077600    0.401262    1.315487
     16          1           0        2.806922   -0.137149    2.222462
     17          1           0        4.134372    0.216505    1.109567
     18          1           0        2.975210    1.471509    1.509562
     19          6           0        2.222412   -0.014155    0.149972
     20          6           0        2.537138    0.694271   -1.138188
     21          1           0        1.916373    0.367458   -1.968328
     22          1           0        2.408693    1.772851   -1.019550
     23          1           0        3.580586    0.529713   -1.415894
     24          6           0        1.260263   -0.942976    0.300887
     25          1           0        1.141223   -1.378779    1.290838
     26          6           0        0.319847   -1.487474   -0.734213
     27          1           0        0.355908   -0.907793   -1.656803
     28          1           0        0.630885   -2.503456   -0.999872
 ---------------------------------------------------------------------

 The electronic state is 1-A.
 Alpha  occ. eigenvalues --  -11.22687 -11.22358 -11.21942 -11.21828 -11.21617
 Alpha  occ. eigenvalues --  -11.21343 -11.21321 -11.21276 -11.21210 -11.21081
 Alpha  occ. eigenvalues --   -1.10786  -1.08087  -1.02025  -0.97716  -0.93690
 Alpha  occ. eigenvalues --   -0.91841  -0.87599  -0.82525  -0.70620  -0.68858
 Alpha  occ. eigenvalues --   -0.64364  -0.61999  -0.59841  -0.59305  -0.58218
 Alpha  occ. eigenvalues --   -0.57454  -0.55135  -0.53680  -0.53150  -0.52864
 Alpha  occ. eigenvalues --   -0.52489  -0.51416  -0.50333  -0.49627  -0.46907
 Alpha  occ. eigenvalues --   -0.45821  -0.45195  -0.33141  -0.31218
 Alpha virt. eigenvalues --    0.18828   0.19896   0.23128   0.24461   0.25631
 Alpha virt. eigenvalues --    0.26761   0.28969   0.29283   0.30688   0.30910
 Alpha virt. eigenvalues --    0.32105   0.32486   0.33232   0.33802   0.34586

 Mulliken charges:
               1
     1  C   -0.214529
     2  H    0.117451
     3  H    0.108918
     4  C    0.010877
     5  C   -0.346956
     6  H    0.117783
     7  H    0.116438
     8  H    0.118820
     9  C   -0.143383
    10  H    0.124934
    11  C   -0.353941
    12  H    0.114038
    13  H    0.119843
    14  H    0.117502
    15  C   -0.341126
    16  H    0.118780
    17  H    0.114209
    18  H    0.114856
    19  C    0.012665
    20  C   -0.352833
    21  H    0.119040
    22  H    0.118716
    23  H    0.121471
    24  C   -0.135098
    25  H    0.116052
    26  C   -0.257831
    27  H    0.117762
    28  H    0.125544
 Sum of Mulliken charges =  -0.00000

 Dipole moment (field-independent basis, Debye):
    X=              0.0602    Y=             -0.0056    Z=             -0.0696  Tot=              0.0921
 Quadrupole moment (field-independent basis, Debye-Ang):
   XX=            -64.4223   YY=            -64.2833   ZZ=            -65.4199
   XY=              1.5939   XZ=             -0.7432   YZ=             -0.4494

 Normal termination of Gaussian 16 at Sat Sep 18 00:57:21 2021.
