 Gaussian 16, Revision A.03,
 Gaussian 16:  EM64L-G16RevA.03 25-Dec-2016

 ---------------------
 #p opt mp2/6-31g(d,p)
 ---------------------

 -------------------------------------------------
 Conformer number 010. Energy MM = 25.468 kcal/mol
 -------------------------------------------------
 Symbolic Z-matrix:
 Charge =  0 Multiplicity = 1

 SCF Done:  E(RHF) =  -389.153307609     A.U. after   12 cycles
 E2 =    -0.1416715918D+01 EUMP2 =    -0.39057002352783D+03
 SCF Done:  E(RHF) =  -389.155491818     A.U. after   10 cycles
 E2 =    -0.1416109053D+01 EUMP2 =    -0.39057160087114D+03
 SCF Done:  E(RHF) =  -389.155615503     A.U. after   10 cycles
 E2 =    -0.1416287044D+01 EUMP2 =    -0.39057190254664D+03
 SCF Done:  E(RHF) =  -389.155762175     A.U. after   10 cycles
 E2 =    -0.1416458945D+01 EUMP2 =    -0.39057222112054D+03
 SCF Done:  E(RHF) =  -389.155979793     A.U. after   10 cycles
 E2 =    -0.1416528893D+01 EUMP2 =    -0.39057250868646D+03
 SCF Done:  E(RHF) =  -389.156405200     A.U. after   10 cycles
 E2 =    -0.1416389952D+01 EUMP2 =    -0.39057279515195D+03
 SCF Done:  E(RHF) =  -389.156774444     A.U. after   10 cycles
 E2 =    -0.1416207611D+01 EUMP2 =    -0.39057298205465D+03
 SCF Done:  E(RHF) =  -389.156785297     A.U. after    9 cycles
 E2 =    -0.1416238218D+01 EUMP2 =    -0.39057302351495D+03
 SCF Done:  E(RHF) =  -389.156820993     A.U. after   11 cycles
 E2 =    -0.1416255090D+01 EUMP2 =    -0.39057307608282D+03
 SCF Done:  E(RHF) =  -389.156756462     A.U. after   10 cycles
 E2 =    -0.1416372768D+01 EUMP2 =    -0.39057312922950D+03
 E2 =    -0.1416470081D+01 EUMP2 =    -0.39057323319126D+03
 E2 =    -0.1416584335D+01 EUMP2 =    -0.39057329266086D+03
 E2 =    -0.1416404263D+01 EUMP2 =    -0.39057310035199D+03
 E2 =    -0.1416569630D+01 EUMP2 =    -0.39057332002049D+03
 SCF Done:  E(RHF) =  -389.156724503     A.U. after    9 cycles
 E2 =    -0.1416614587D+01 EUMP2 =    -0.39057333908962D+03
 SCF Done:  E(RHF) =  -389.156791791     A.U. after   10 cycles
 E2 =    -0.1416552279D+01 EUMP2 =    -0.39057334406936D+03
 SCF Done:  E(RHF) =  -389.156770369     A.U. after    9 cycles
 E2 =    -0.1416576263D+01 EUMP2 =    -0.39057334663287D+03
 SCF Done:  E(RHF) =  -389.156820799     A.U. after    9 cycles
 E2 =    -0.1416521267D+01 EUMP2 =    -0.39057334206611D+03
 SCF Done:  E(RHF) =  -389.156787104     A.U. after    9 cycles
 E2 =    -0.1416560440D+01 EUMP2 =    -0.39057334754347D+03
 SCF Done:  E(RHF) =  -389.156790351     A.U. after    8 cycles
 E2 =    -0.1416557455D+01 EUMP2 =    -0.39057334780619D+03
 SCF Done:  E(RHF) =  -389.156797760     A.U. after    8 cycles
 E2 =    -0.1416550328D+01 EUMP2 =    -0.39057334808777D+03
 SCF Done:  E(RHF) =  -389.156810067     A.U. after    8 cycles
 E2 =    -0.1416538261D+01 EUMP2 =    -0.39057334832764D+03
 SCF Done:  E(RHF) =  -389.156818868     A.U. after    8 cycles
 E2 =    -0.1416529548D+01 EUMP2 =    -0.39057334841587D+03
 SCF Done:  E(RHF) =  -389.156821216     A.U. after    6 cycles
 E2 =    -0.1416527222D+01 EUMP2 =    -0.39057334843814D+03
 Optimization completed.
    -- Stationary point found.

                         Standard orientation:
 ---------------------------------------------------------------------
 Center     Atomic      Atomic             Coordinates (Angstroms)
 Number     Number       Type             X           Y           Z
 ---------------------------------------------------------------------
      1          6           0        0.558197   -0.358494    0.495203
      2          1           0        0.130560    0.200195    1.334825
      3          1           0        0.574272   -1.410272    0.791867
      4          6           0        1.961891    0.116388    0.222762
      5          6           0        2.099867    1.588177   -0.065006
      6          1           0        3.126560    1.936564    0.014933
      7          1           0        1.742560    1.832872   -1.067093
      8          1           0        1.496856    2.164489    0.639392
      9          6           0        2.983630   -0.760453    0.219263
     10          1           0        2.746108   -1.796515    0.445073
     11          6           0        4.430182   -0.487750   -0.060828
     12          1           0        4.621165    0.554152   -0.304640
     13          1           0        5.049323   -0.753003    0.798102
     14          1           0        4.777122   -1.092304   -0.900749
     15          6           0       -4.131884   -0.818683    0.221777
     16          1           0       -4.029956   -1.891033    0.062319
     17          1           0       -4.461108   -0.654862    1.250357
     18          1           0       -4.928894   -0.450185   -0.428082
     19          6           0       -2.842187   -0.094557   -0.050330
     20          6           0       -2.905946    1.395321    0.142242
     21          1           0       -1.949962    1.886276   -0.021202
     22          1           0       -3.638299    1.838415   -0.536338
     23          1           0       -3.234141    1.629244    1.157229
     24          6           0       -1.741613   -0.765931   -0.438295
     25          1           0       -1.819009   -1.847228   -0.520492
     26          6           0       -0.381823   -0.195895   -0.713335
     27          1           0        0.064308   -0.712329   -1.567755
     28          1           0       -0.449350    0.856782   -0.988470
 ---------------------------------------------------------------------

 The electronic state is 1-A.
 Alpha  occ. eigenvalues --  -11.22942 -11.22511 -11.21700 -11.21672 -11.21623
 Alpha  occ. eigenvalues --  -11.21559 -11.21548 -11.21481 -11.21395 -11.21302
 Alpha  occ. eigenvalues --   -1.10735  -1.08460  -1.02106  -0.97425  -0.93781
 Alpha  occ. eigenvalues --   -0.92410  -0.87797  -0.81730  -0.70595  -0.69538
 Alpha  occ. eigenvalues --   -0.64148  -0.63200  -0.59865  -0.58878  -0.58400
 Alpha  occ. eigenvalues --   -0.56977  -0.55032  -0.54497  -0.53242  -0.52889
 Alpha  occ. eigenvalues --   -0.51757  -0.51256  -0.50604  -0.49958  -0.47402
 Alpha  occ. eigenvalues --   -0.46411  -0.44634  -0.33303  -0.31579
 Alpha virt. eigenvalues --    0.18277   0.19824   0.22640   0.24479   0.26352
 Alpha virt. eigenvalues --    0.26979   0.28134   0.29580   0.30259   0.30762
 Alpha virt. eigenvalues --    0.31180   0.32646   0.32689   0.33226   0.34300

 Mulliken charges:
               1
     1  C   -0.222841
     2  H    0.114788
     3  H    0.116863
     4  C    0.024583
     5  C   -0.351511
     6  H    0.121003
     7  H    0.125086
     8  H    0.116268
     9  C   -0.158632
    10  H    0.115762
    11  C   -0.353541
    12  H    0.115590
    13  H    0.120364
    14  H    0.120389
    15  C   -0.342541
    16  H    0.119179
    17  H    0.115567
    18  H    0.115888
    19  C    0.026502
    20  C   -0.348895
    21  H    0.118794
    22  H    0.120495
    23  H    0.119475
    24  C   -0.162077
    25  H    0.117294
    26  C   -0.242782
    27  H    0.122072
    28  H    0.116856
 Sum of Mulliken charges =  -0.00000

 Dipole moment (field-independent basis, Debye):
    X=             -0.1804    Y=              0.3343    Z=              0.0136  Tot=              0.3801
 Quadrupole moment (field-independent basis, Debye-Ang):
   XX=            -63.3695   YY=            -63.3487   ZZ=            -67.5455
   XY=             -0.5277   XZ=             -1.2946   YZ=             -0.0445

 Normal termination of Gaussian 16 at Fri Sep 17 22:30:38 2021.
