 Gaussian 16, Revision A.03,
 Gaussian 16:  EM64L-G16RevA.03 25-Dec-2016

 ---------------------
 #p opt mp2/6-31g(d,p)
 ---------------------

 -------------------------------------------------
 Conformer number 002. Energy MM = 25.192 kcal/mol
 -------------------------------------------------
 Symbolic Z-matrix:
 Charge =  0 Multiplicity = 1

 SCF Done:  E(RHF) =  -389.152213900     A.U. after   13 cycles
 E2 =    -0.1417376236D+01 EUMP2 =    -0.39056959013641D+03
 SCF Done:  E(RHF) =  -389.155310018     A.U. after   11 cycles
 E2 =    -0.1416499759D+01 EUMP2 =    -0.39057180977643D+03
 SCF Done:  E(RHF) =  -389.155687288     A.U. after   10 cycles
 E2 =    -0.1416629568D+01 EUMP2 =    -0.39057231685644D+03
 SCF Done:  E(RHF) =  -389.155856095     A.U. after   10 cycles
 E2 =    -0.1416733075D+01 EUMP2 =    -0.39057258917037D+03
 SCF Done:  E(RHF) =  -389.156237283     A.U. after   10 cycles
 E2 =    -0.1416565321D+01 EUMP2 =    -0.39057280260360D+03
 SCF Done:  E(RHF) =  -389.156764934     A.U. after   10 cycles
 E2 =    -0.1416259743D+01 EUMP2 =    -0.39057302467753D+03
 SCF Done:  E(RHF) =  -389.156899913     A.U. after   10 cycles
 E2 =    -0.1416174974D+01 EUMP2 =    -0.39057307488674D+03
 SCF Done:  E(RHF) =  -389.156935043     A.U. after    9 cycles
 E2 =    -0.1416157468D+01 EUMP2 =    -0.39057309251119D+03
 SCF Done:  E(RHF) =  -389.156925561     A.U. after    9 cycles
 E2 =    -0.1416193266D+01 EUMP2 =    -0.39057311882711D+03
 SCF Done:  E(RHF) =  -389.156916293     A.U. after    9 cycles
 E2 =    -0.1416220017D+01 EUMP2 =    -0.39057313630998D+03
 E2 =    -0.1416227903D+01 EUMP2 =    -0.39057316755775D+03
 E2 =    -0.1416284601D+01 EUMP2 =    -0.39057310708730D+03
 E2 =    -0.1416260478D+01 EUMP2 =    -0.39057320358746D+03
 E2 =    -0.1416233072D+01 EUMP2 =    -0.39057317993679D+03
 E2 =    -0.1416267898D+01 EUMP2 =    -0.39057314944373D+03
 E2 =    -0.1416258007D+01 EUMP2 =    -0.39057324568686D+03
 E2 =    -0.1416232621D+01 EUMP2 =    -0.39057319593507D+03
 SCF Done:  E(RHF) =  -389.156498765     A.U. after   11 cycles
 E2 =    -0.1416243500D+01 EUMP2 =    -0.39057274226539D+03
 SCF Done:  E(RHF) =  -389.157010683     A.U. after    9 cycles
 E2 =    -0.1416244712D+01 EUMP2 =    -0.39057325539575D+03
 SCF Done:  E(RHF) =  -389.156993088     A.U. after    9 cycles
 E2 =    -0.1416266374D+01 EUMP2 =    -0.39057325946162D+03
 SCF Done:  E(RHF) =  -389.156984968     A.U. after    8 cycles
 E2 =    -0.1416275846D+01 EUMP2 =    -0.39057326081363D+03
 SCF Done:  E(RHF) =  -389.156979680     A.U. after    7 cycles
 E2 =    -0.1416281339D+01 EUMP2 =    -0.39057326101844D+03
 SCF Done:  E(RHF) =  -389.156974237     A.U. after    8 cycles
 E2 =    -0.1416286913D+01 EUMP2 =    -0.39057326114945D+03
 SCF Done:  E(RHF) =  -389.156967269     A.U. after    8 cycles
 E2 =    -0.1416294103D+01 EUMP2 =    -0.39057326137180D+03
 SCF Done:  E(RHF) =  -389.156958473     A.U. after    8 cycles
 E2 =    -0.1416303025D+01 EUMP2 =    -0.39057326149856D+03
 SCF Done:  E(RHF) =  -389.156952624     A.U. after    8 cycles
 E2 =    -0.1416309071D+01 EUMP2 =    -0.39057326169519D+03
 SCF Done:  E(RHF) =  -389.156945383     A.U. after    8 cycles
 E2 =    -0.1416316400D+01 EUMP2 =    -0.39057326178331D+03
 Optimization completed.
    -- Stationary point found.

                         Standard orientation:
 ---------------------------------------------------------------------
 Center     Atomic      Atomic             Coordinates (Angstroms)
 Number     Number       Type             X           Y           Z
 ---------------------------------------------------------------------
      1          6           0        0.553750   -0.454881   -0.655999
      2          1           0        0.455038   -1.311842   -1.331709
      3          1           0        0.240703    0.428159   -1.217904
      4          6           0        1.990505   -0.307704   -0.225739
      5          6           0        2.601102   -1.521963    0.422651
      6          1           0        3.685935   -1.470183    0.470365
      7          1           0        2.229627   -1.659788    1.439765
      8          1           0        2.334839   -2.419188   -0.139190
      9          6           0        2.629343    0.864197   -0.403746
     10          1           0        2.072300    1.661509   -0.888444
     11          6           0        4.032727    1.216782   -0.014475
     12          1           0        4.546187    0.401355    0.488432
     13          1           0        4.620487    1.497395   -0.890408
     14          1           0        4.037824    2.075490    0.659283
     15          6           0       -4.171841   -0.183563   -0.474290
     16          1           0       -4.237109   -1.210224   -0.831327
     17          1           0       -4.931385   -0.040681    0.297729
     18          1           0       -4.430442    0.483513   -1.299725
     19          6           0       -2.801131    0.130424    0.059337
     20          6           0       -2.635266    1.533563    0.573330
     21          1           0       -1.626696    1.743471    0.919453
     22          1           0       -2.877880    2.252355   -0.212259
     23          1           0       -3.325945    1.722627    1.398133
     24          6           0       -1.831654   -0.803784    0.060477
     25          1           0       -2.076714   -1.776851   -0.358422
     26          6           0       -0.414807   -0.646646    0.525334
     27          1           0       -0.306974    0.200520    1.203939
     28          1           0       -0.126159   -1.536178    1.091006
 ---------------------------------------------------------------------

 The electronic state is 1-A.
 Alpha  occ. eigenvalues --  -11.22919 -11.22524 -11.21711 -11.21627 -11.21570
 Alpha  occ. eigenvalues --  -11.21559 -11.21513 -11.21454 -11.21402 -11.21298
 Alpha  occ. eigenvalues --   -1.10712  -1.08439  -1.02117  -0.97412  -0.93716
 Alpha  occ. eigenvalues --   -0.92410  -0.87778  -0.81711  -0.70462  -0.69695
 Alpha  occ. eigenvalues --   -0.64282  -0.63080  -0.59594  -0.58686  -0.58537
 Alpha  occ. eigenvalues --   -0.56930  -0.55096  -0.54874  -0.53177  -0.52751
 Alpha  occ. eigenvalues --   -0.51784  -0.51130  -0.50640  -0.49304  -0.47959
 Alpha  occ. eigenvalues --   -0.46342  -0.44583  -0.33431  -0.31446
 Alpha virt. eigenvalues --    0.18431   0.19807   0.22981   0.24449   0.26534
 Alpha virt. eigenvalues --    0.26923   0.27862   0.28939   0.30368   0.30756
 Alpha virt. eigenvalues --    0.31384   0.32419   0.33231   0.33546   0.34254

 Mulliken charges:
               1
     1  C   -0.223816
     2  H    0.110985
     3  H    0.121002
     4  C    0.023438
     5  C   -0.349588
     6  H    0.120449
     7  H    0.125269
     8  H    0.116653
     9  C   -0.159256
    10  H    0.115715
    11  C   -0.353363
    12  H    0.115744
    13  H    0.120436
    14  H    0.120005
    15  C   -0.342638
    16  H    0.118794
    17  H    0.115892
    18  H    0.115445
    19  C    0.025368
    20  C   -0.349419
    21  H    0.122032
    22  H    0.118830
    23  H    0.120083
    24  C   -0.159686
    25  H    0.115886
    26  C   -0.243228
    27  H    0.121698
    28  H    0.117271
 Sum of Mulliken charges =  -0.00000

 Dipole moment (field-independent basis, Debye):
    X=             -0.0904    Y=              0.0784    Z=              0.1311  Tot=              0.1775
 Quadrupole moment (field-independent basis, Debye-Ang):
   XX=            -63.7658   YY=            -63.3654   ZZ=            -67.0583
   XY=             -1.0227   XZ=              1.2570   YZ=              0.0090

 Normal termination of Gaussian 16 at Fri Sep 17 21:30:57 2021.
