 Gaussian 16, Revision A.03,
 Gaussian 16:  EM64L-G16RevA.03 25-Dec-2016

 ---------------------
 #p opt mp2/6-31g(d,p)
 ---------------------

 -------------------------------------------------
 Conformer number 006. Energy MM = 26.902 kcal/mol
 -------------------------------------------------
 Symbolic Z-matrix:
 Charge =  0 Multiplicity = 1

 SCF Done:  E(RHF) =  -389.148976083     A.U. after   12 cycles
 E2 =    -0.1417478894D+01 EUMP2 =    -0.39056645497697D+03
 SCF Done:  E(RHF) =  -389.151934126     A.U. after   10 cycles
 E2 =    -0.1416757719D+01 EUMP2 =    -0.39056869184569D+03
 SCF Done:  E(RHF) =  -389.152867692     A.U. after   11 cycles
 E2 =    -0.1416767040D+01 EUMP2 =    -0.39056963473170D+03
 SCF Done:  E(RHF) =  -389.154587822     A.U. after   13 cycles
 E2 =    -0.1417113934D+01 EUMP2 =    -0.39057170175658D+03
 SCF Done:  E(RHF) =  -389.155626754     A.U. after   11 cycles
 E2 =    -0.1416907484D+01 EUMP2 =    -0.39057253423797D+03
 SCF Done:  E(RHF) =  -389.156829935     A.U. after   11 cycles
 E2 =    -0.1416322601D+01 EUMP2 =    -0.39057315253669D+03
 SCF Done:  E(RHF) =  -389.156692461     A.U. after   11 cycles
 E2 =    -0.1416434584D+01 EUMP2 =    -0.39057312704481D+03
 SCF Done:  E(RHF) =  -389.156880458     A.U. after   10 cycles
 E2 =    -0.1416344271D+01 EUMP2 =    -0.39057322472867D+03
 SCF Done:  E(RHF) =  -389.156878809     A.U. after    9 cycles
 E2 =    -0.1416383135D+01 EUMP2 =    -0.39057326194453D+03
 SCF Done:  E(RHF) =  -389.156828793     A.U. after   11 cycles
 E2 =    -0.1416469778D+01 EUMP2 =    -0.39057329857121D+03
 SCF Done:  E(RHF) =  -389.156863425     A.U. after   10 cycles
 E2 =    -0.1416463848D+01 EUMP2 =    -0.39057332727276D+03
 SCF Done:  E(RHF) =  -389.156841486     A.U. after    9 cycles
 E2 =    -0.1416500778D+01 EUMP2 =    -0.39057334226406D+03
 SCF Done:  E(RHF) =  -389.156828214     A.U. after    9 cycles
 E2 =    -0.1416519130D+01 EUMP2 =    -0.39057334734489D+03
 SCF Done:  E(RHF) =  -389.156817971     A.U. after    8 cycles
 E2 =    -0.1416530122D+01 EUMP2 =    -0.39057334809371D+03
 SCF Done:  E(RHF) =  -389.156818695     A.U. after    6 cycles
 E2 =    -0.1416529706D+01 EUMP2 =    -0.39057334840086D+03
 SCF Done:  E(RHF) =  -389.156818692     A.U. after    6 cycles
 E2 =    -0.1416529741D+01 EUMP2 =    -0.39057334843273D+03
 Optimization completed.
    -- Stationary point found.

                         Standard orientation:
 ---------------------------------------------------------------------
 Center     Atomic      Atomic             Coordinates (Angstroms)
 Number     Number       Type             X           Y           Z
 ---------------------------------------------------------------------
      1          6           0        0.557792   -0.358084   -0.494990
      2          1           0        0.573771   -1.409590   -0.792616
      3          1           0        0.129857    0.201353   -1.333964
      4          6           0        1.961585    0.116561   -0.222598
      5          6           0        2.099723    1.588173    0.065963
      6          1           0        3.126466    1.936480   -0.013697
      7          1           0        1.496819    2.164926   -0.638161
      8          1           0        1.742379    1.832365    1.068159
      9          6           0        2.983255   -0.760364   -0.219868
     10          1           0        2.745568   -1.796276   -0.446190
     11          6           0        4.429888   -0.487964    0.060078
     12          1           0        4.621182    0.553993    0.303412
     13          1           0        4.776689   -1.092255    0.900250
     14          1           0        5.048910   -0.753769   -0.798764
     15          6           0       -4.131878   -0.818079   -0.222017
     16          1           0       -4.030390   -1.890498   -0.062742
     17          1           0       -4.928717   -0.449358    0.427930
     18          1           0       -4.461060   -0.653940   -1.250556
     19          6           0       -2.841875   -0.094540    0.050189
     20          6           0       -2.904728    1.395303   -0.142940
     21          1           0       -1.948577    1.885789    0.020949
     22          1           0       -3.232150    1.629060   -1.158217
     23          1           0       -3.637276    1.839026    0.535020
     24          6           0       -1.741775   -0.766299    0.438816
     25          1           0       -1.819663   -1.847531    0.521336
     26          6           0       -0.381835   -0.196638    0.714007
     27          1           0       -0.449238    0.855765    0.990239
     28          1           0        0.064506   -0.713955    1.567772
 ---------------------------------------------------------------------

 The electronic state is 1-A.
 Alpha  occ. eigenvalues --  -11.22942 -11.22511 -11.21700 -11.21672 -11.21623
 Alpha  occ. eigenvalues --  -11.21560 -11.21548 -11.21481 -11.21395 -11.21302
 Alpha  occ. eigenvalues --   -1.10736  -1.08460  -1.02105  -0.97425  -0.93781
 Alpha  occ. eigenvalues --   -0.92410  -0.87797  -0.81731  -0.70593  -0.69539
 Alpha  occ. eigenvalues --   -0.64148  -0.63201  -0.59864  -0.58878  -0.58399
 Alpha  occ. eigenvalues --   -0.56978  -0.55032  -0.54497  -0.53242  -0.52889
 Alpha  occ. eigenvalues --   -0.51758  -0.51257  -0.50602  -0.49958  -0.47402
 Alpha  occ. eigenvalues --   -0.46412  -0.44634  -0.33303  -0.31578
 Alpha virt. eigenvalues --    0.18275   0.19824   0.22639   0.24479   0.26353
 Alpha virt. eigenvalues --    0.26980   0.28132   0.29578   0.30259   0.30761
 Alpha virt. eigenvalues --    0.31179   0.32645   0.32693   0.33225   0.34302

 Mulliken charges:
               1
     1  C   -0.222823
     2  H    0.116874
     3  H    0.114778
     4  C    0.024570
     5  C   -0.351496
     6  H    0.120996
     7  H    0.116268
     8  H    0.125080
     9  C   -0.158627
    10  H    0.115763
    11  C   -0.353536
    12  H    0.115584
    13  H    0.120399
    14  H    0.120355
    15  C   -0.342537
    16  H    0.119180
    17  H    0.115901
    18  H    0.115555
    19  C    0.026539
    20  C   -0.348904
    21  H    0.118797
    22  H    0.119482
    23  H    0.120488
    24  C   -0.162127
    25  H    0.117300
    26  C   -0.242793
    27  H    0.116867
    28  H    0.122068
 Sum of Mulliken charges =  -0.00000

 Dipole moment (field-independent basis, Debye):
    X=             -0.1803    Y=              0.3341    Z=             -0.0136  Tot=              0.3799
 Quadrupole moment (field-independent basis, Debye-Ang):
   XX=            -63.3705   YY=            -63.3490   ZZ=            -67.5450
   XY=             -0.5280   XZ=              1.2953   YZ=              0.0451

 Normal termination of Gaussian 16 at Fri Sep 17 21:06:40 2021.
