 Gaussian 16, Revision A.03,
 Gaussian 16:  EM64L-G16RevA.03 25-Dec-2016

 ---------------------
 #p opt mp2/6-31g(d,p)
 ---------------------

 -------------------------------------------------
 Conformer number 004. Energy MM = 27.498 kcal/mol
 -------------------------------------------------
 Symbolic Z-matrix:
 Charge =  0 Multiplicity = 1

 SCF Done:  E(RHF) =  -389.151518371     A.U. after   13 cycles
 E2 =    -0.1418052813D+01 EUMP2 =    -0.39056957118375D+03
 SCF Done:  E(RHF) =  -389.153065174     A.U. after   11 cycles
 E2 =    -0.1418085622D+01 EUMP2 =    -0.39057115079563D+03
 SCF Done:  E(RHF) =  -389.153516436     A.U. after   11 cycles
 E2 =    -0.1417861455D+01 EUMP2 =    -0.39057137789015D+03
 SCF Done:  E(RHF) =  -389.153610415     A.U. after   10 cycles
 E2 =    -0.1418006136D+01 EUMP2 =    -0.39057161655082D+03
 SCF Done:  E(RHF) =  -389.153858945     A.U. after   11 cycles
 E2 =    -0.1418034468D+01 EUMP2 =    -0.39057189341296D+03
 SCF Done:  E(RHF) =  -389.154423487     A.U. after   10 cycles
 E2 =    -0.1417859581D+01 EUMP2 =    -0.39057228306812D+03
 SCF Done:  E(RHF) =  -389.154995543     A.U. after   11 cycles
 E2 =    -0.1417756885D+01 EUMP2 =    -0.39057275242825D+03
 SCF Done:  E(RHF) =  -389.154999058     A.U. after    9 cycles
 E2 =    -0.1417725029D+01 EUMP2 =    -0.39057272408714D+03
 SCF Done:  E(RHF) =  -389.155215733     A.U. after   11 cycles
 E2 =    -0.1417958027D+01 EUMP2 =    -0.39057317376072D+03
 SCF Done:  E(RHF) =  -389.152485278     A.U. after   13 cycles
 E2 =    -0.1419876458D+01 EUMP2 =    -0.39057236173597D+03
 E2 =    -0.1418129356D+01 EUMP2 =    -0.39057368404191D+03
 E2 =    -0.1418676817D+01 EUMP2 =    -0.39057397042353D+03
 SCF Done:  E(RHF) =  -389.153660150     A.U. after   13 cycles
 E2 =    -0.1420212107D+01 EUMP2 =    -0.39057387225633D+03
 SCF Done:  E(RHF) =  -389.155497674     A.U. after   10 cycles
 E2 =    -0.1418904405D+01 EUMP2 =    -0.39057440207907D+03
 SCF Done:  E(RHF) =  -389.155408812     A.U. after    9 cycles
 E2 =    -0.1419062284D+01 EUMP2 =    -0.39057447109579D+03
 SCF Done:  E(RHF) =  -389.155391737     A.U. after    9 cycles
 E2 =    -0.1419098280D+01 EUMP2 =    -0.39057449001713D+03
 SCF Done:  E(RHF) =  -389.155382633     A.U. after    8 cycles
 E2 =    -0.1419113142D+01 EUMP2 =    -0.39057449577505D+03
 SCF Done:  E(RHF) =  -389.155401138     A.U. after    9 cycles
 E2 =    -0.1419100709D+01 EUMP2 =    -0.39057450184720D+03
 SCF Done:  E(RHF) =  -389.155413465     A.U. after    8 cycles
 E2 =    -0.1419089700D+01 EUMP2 =    -0.39057450316442D+03
 SCF Done:  E(RHF) =  -389.155414256     A.U. after    7 cycles
 E2 =    -0.1419089233D+01 EUMP2 =    -0.39057450348933D+03
 SCF Done:  E(RHF) =  -389.155411927     A.U. after    7 cycles
 E2 =    -0.1419091696D+01 EUMP2 =    -0.39057450362307D+03
 SCF Done:  E(RHF) =  -389.155410726     A.U. after    6 cycles
 E2 =    -0.1419092923D+01 EUMP2 =    -0.39057450364892D+03
 Optimization completed.
    -- Stationary point found.

                         Standard orientation:
 ---------------------------------------------------------------------
 Center     Atomic      Atomic             Coordinates (Angstroms)
 Number     Number       Type             X           Y           Z
 ---------------------------------------------------------------------
      1          6           0        0.983896   -1.546585   -0.768730
      2          1           0        1.438606   -2.508572   -0.507271
      3          1           0        1.192086   -1.373068   -1.827636
      4          6           0        1.606597   -0.446969    0.051637
      5          6           0        1.409237   -0.567983    1.537954
      6          1           0        2.064810    0.088685    2.104320
      7          1           0        0.379280   -0.329773    1.810053
      8          1           0        1.601925   -1.592679    1.862392
      9          6           0        2.258209    0.563458   -0.553747
     10          1           0        2.320216    0.531892   -1.638183
     11          6           0        2.915285    1.749479    0.083829
     12          1           0        2.822225    1.749269    1.166793
     13          1           0        3.977837    1.785014   -0.163672
     14          1           0        2.471831    2.675928   -0.285635
     15          6           0       -2.637417    1.656749   -0.553391
     16          1           0       -2.253930    1.931928   -1.534661
     17          1           0       -3.727697    1.617350   -0.609525
     18          1           0       -2.385111    2.454895    0.148552
     19          6           0       -2.075320    0.340731   -0.089482
     20          6           0       -2.565716   -0.101447    1.261647
     21          1           0       -2.149075   -1.054005    1.578184
     22          1           0       -2.321264    0.646921    2.018874
     23          1           0       -3.653795   -0.197756    1.254202
     24          6           0       -1.214682   -0.346910   -0.863280
     25          1           0       -0.952923    0.091103   -1.824170
     26          6           0       -0.538768   -1.650895   -0.567600
     27          1           0       -0.750838   -1.984104    0.448135
     28          1           0       -0.922107   -2.430798   -1.233771
 ---------------------------------------------------------------------

 The electronic state is 1-A.
 Alpha  occ. eigenvalues --  -11.22744 -11.22316 -11.21839 -11.21740 -11.21605
 Alpha  occ. eigenvalues --  -11.21315 -11.21306 -11.21252 -11.21233 -11.21216
 Alpha  occ. eigenvalues --   -1.10881  -1.08080  -1.02120  -0.97148  -0.93656
 Alpha  occ. eigenvalues --   -0.92311  -0.88050  -0.81320  -0.70371  -0.69836
 Alpha  occ. eigenvalues --   -0.64406  -0.62077  -0.60323  -0.59015  -0.57403
 Alpha  occ. eigenvalues --   -0.56888  -0.55180  -0.54558  -0.53460  -0.52929
 Alpha  occ. eigenvalues --   -0.52430  -0.51366  -0.49777  -0.49031  -0.48172
 Alpha  occ. eigenvalues --   -0.45584  -0.44879  -0.32481  -0.31922
 Alpha virt. eigenvalues --    0.18687   0.20045   0.22372   0.25239   0.25736
 Alpha virt. eigenvalues --    0.27047   0.28444   0.29466   0.29883   0.30879
 Alpha virt. eigenvalues --    0.31869   0.32430   0.33266   0.33451   0.34842

 Mulliken charges:
               1
     1  C   -0.234465
     2  H    0.115117
     3  H    0.113112
     4  C    0.042067
     5  C   -0.354002
     6  H    0.118867
     7  H    0.131018
     8  H    0.113558
     9  C   -0.157671
    10  H    0.112859
    11  C   -0.352869
    12  H    0.115015
    13  H    0.118644
    14  H    0.120177
    15  C   -0.341268
    16  H    0.118838
    17  H    0.113996
    18  H    0.115224
    19  C    0.014271
    20  C   -0.349264
    21  H    0.117067
    22  H    0.118188
    23  H    0.120307
    24  C   -0.135619
    25  H    0.115862
    26  C   -0.246112
    27  H    0.113522
    28  H    0.123559
 Sum of Mulliken charges =  -0.00000

 Dipole moment (field-independent basis, Debye):
    X=             -0.2423    Y=              0.0018    Z=              0.2998  Tot=              0.3855
 Quadrupole moment (field-independent basis, Debye-Ang):
   XX=            -66.5751   YY=            -64.4939   ZZ=            -63.8503
   XY=              0.0594   XZ=             -0.9358   YZ=             -0.3702

 Normal termination of Gaussian 16 at Fri Sep 17 21:29:24 2021.
