 Gaussian 16, Revision A.03,
 Gaussian 16:  EM64L-G16RevA.03 25-Dec-2016

 ---------------------
 #p opt mp2/6-31g(d,p)
 ---------------------

 -------------------------------------------------
 Conformer number 025. Energy MM = 26.862 kcal/mol
 -------------------------------------------------
 Symbolic Z-matrix:
 Charge =  0 Multiplicity = 1

 SCF Done:  E(RHF) =  -389.150843553     A.U. after   12 cycles
 E2 =    -0.1417400489D+01 EUMP2 =    -0.39056824404273D+03
 SCF Done:  E(RHF) =  -389.153692846     A.U. after   11 cycles
 E2 =    -0.1416762322D+01 EUMP2 =    -0.39057045516891D+03
 SCF Done:  E(RHF) =  -389.154050097     A.U. after   10 cycles
 E2 =    -0.1416864106D+01 EUMP2 =    -0.39057091420258D+03
 SCF Done:  E(RHF) =  -389.154458141     A.U. after   11 cycles
 E2 =    -0.1416928027D+01 EUMP2 =    -0.39057138616766D+03
 SCF Done:  E(RHF) =  -389.155014700     A.U. after   10 cycles
 E2 =    -0.1416759578D+01 EUMP2 =    -0.39057177427836D+03
 SCF Done:  E(RHF) =  -389.155647642     A.U. after   10 cycles
 E2 =    -0.1416418939D+01 EUMP2 =    -0.39057206658125D+03
 SCF Done:  E(RHF) =  -389.155801994     A.U. after    9 cycles
 E2 =    -0.1416330835D+01 EUMP2 =    -0.39057213282935D+03
 SCF Done:  E(RHF) =  -389.155876170     A.U. after    9 cycles
 E2 =    -0.1416290432D+01 EUMP2 =    -0.39057216660141D+03
 SCF Done:  E(RHF) =  -389.155948418     A.U. after    9 cycles
 E2 =    -0.1416235445D+01 EUMP2 =    -0.39057218386328D+03
 SCF Done:  E(RHF) =  -389.155974956     A.U. after    9 cycles
 E2 =    -0.1416218323D+01 EUMP2 =    -0.39057219327887D+03
 SCF Done:  E(RHF) =  -389.156018226     A.U. after    9 cycles
 E2 =    -0.1416177950D+01 EUMP2 =    -0.39057219617567D+03
 SCF Done:  E(RHF) =  -389.156021786     A.U. after    9 cycles
 E2 =    -0.1416180493D+01 EUMP2 =    -0.39057220227889D+03
 SCF Done:  E(RHF) =  -389.156028168     A.U. after    8 cycles
 E2 =    -0.1416174840D+01 EUMP2 =    -0.39057220300843D+03
 SCF Done:  E(RHF) =  -389.156029773     A.U. after    8 cycles
 E2 =    -0.1416173458D+01 EUMP2 =    -0.39057220323140D+03
 SCF Done:  E(RHF) =  -389.156032207     A.U. after    8 cycles
 E2 =    -0.1416171213D+01 EUMP2 =    -0.39057220341964D+03
 SCF Done:  E(RHF) =  -389.156039362     A.U. after    8 cycles
 E2 =    -0.1416164293D+01 EUMP2 =    -0.39057220365447D+03
 SCF Done:  E(RHF) =  -389.156043706     A.U. after    8 cycles
 E2 =    -0.1416160063D+01 EUMP2 =    -0.39057220376958D+03
 SCF Done:  E(RHF) =  -389.156047708     A.U. after    7 cycles
 E2 =    -0.1416156129D+01 EUMP2 =    -0.39057220383751D+03
 SCF Done:  E(RHF) =  -389.156047228     A.U. after    6 cycles
 E2 =    -0.1416156620D+01 EUMP2 =    -0.39057220384791D+03
 Optimization completed.
    -- Stationary point found.

                         Standard orientation:
 ---------------------------------------------------------------------
 Center     Atomic      Atomic             Coordinates (Angstroms)
 Number     Number       Type             X           Y           Z
 ---------------------------------------------------------------------
      1          6           0       -0.538957    0.762136   -0.078871
      2          1           0       -0.139125    1.058124    0.897806
      3          1           0       -0.443221    1.655498   -0.707412
      4          6           0       -2.008596    0.444677    0.076960
      5          6           0       -2.805065    1.598707    0.624630
      6          1           0       -3.858714    1.369827    0.757909
      7          1           0       -2.403411    1.909415    1.591389
      8          1           0       -2.729075    2.460953   -0.041240
      9          6           0       -2.524436   -0.755730   -0.245078
     10          1           0       -1.848178   -1.510054   -0.630841
     11          6           0       -3.952097   -1.202079   -0.139562
     12          1           0       -4.612713   -0.428960    0.243436
     13          1           0       -4.330333   -1.509392   -1.116199
     14          1           0       -4.035477   -2.068405    0.519186
     15          6           0        4.173984    0.460126   -0.293398
     16          1           0        4.161395    1.077455   -1.190347
     17          1           0        4.519541    1.074720    0.540904
     18          1           0        4.915071   -0.330334   -0.432249
     19          6           0        2.817956   -0.122843   -0.004209
     20          6           0        2.758438   -0.992264    1.221036
     21          1           0        1.761106   -1.372708    1.425342
     22          1           0        3.434575   -1.843930    1.118299
     23          1           0        3.089864   -0.430294    2.096812
     24          6           0        1.770499    0.138358   -0.808417
     25          1           0        1.943973    0.798845   -1.654544
     26          6           0        0.357167   -0.339033   -0.650262
     27          1           0       -0.027247   -0.644367   -1.627004
     28          1           0        0.308608   -1.218723   -0.008228
 ---------------------------------------------------------------------

 The electronic state is 1-A.
 Alpha  occ. eigenvalues --  -11.22919 -11.22665 -11.21834 -11.21628 -11.21588
 Alpha  occ. eigenvalues --  -11.21461 -11.21437 -11.21421 -11.21351 -11.21312
 Alpha  occ. eigenvalues --   -1.10741  -1.08418  -1.02019  -0.97869  -0.93728
 Alpha  occ. eigenvalues --   -0.92029  -0.87200  -0.82983  -0.70311  -0.69056
 Alpha  occ. eigenvalues --   -0.63960  -0.63320  -0.60086  -0.59084  -0.58549
 Alpha  occ. eigenvalues --   -0.56272  -0.55702  -0.54671  -0.53189  -0.52798
 Alpha  occ. eigenvalues --   -0.52150  -0.51319  -0.50325  -0.48691  -0.47755
 Alpha  occ. eigenvalues --   -0.46336  -0.44918  -0.32558  -0.32297
 Alpha virt. eigenvalues --    0.18977   0.19591   0.23180   0.24499   0.26349
 Alpha virt. eigenvalues --    0.26856   0.27547   0.29410   0.30214   0.31203
 Alpha virt. eigenvalues --    0.32161   0.32416   0.33141   0.33783   0.34617

 Mulliken charges:
               1
     1  C   -0.202568
     2  H    0.118985
     3  H    0.113649
     4  C    0.010672
     5  C   -0.347485
     6  H    0.118134
     7  H    0.119300
     8  H    0.119633
     9  C   -0.162483
    10  H    0.122177
    11  C   -0.351352
    12  H    0.114809
    13  H    0.119619
    14  H    0.119292
    15  C   -0.342415
    16  H    0.118871
    17  H    0.115301
    18  H    0.115910
    19  C    0.025775
    20  C   -0.349695
    21  H    0.122042
    22  H    0.120048
    23  H    0.119098
    24  C   -0.163098
    25  H    0.117181
    26  C   -0.254138
    27  H    0.122277
    28  H    0.120459
 Sum of Mulliken charges =  -0.00000

 Dipole moment (field-independent basis, Debye):
    X=              0.1356    Y=              0.1080    Z=              0.2640  Tot=              0.3158
 Quadrupole moment (field-independent basis, Debye-Ang):
   XX=            -63.5782   YY=            -64.7772   ZZ=            -65.7456
   XY=             -0.0905   XZ=              0.6118   YZ=             -0.3813

 Normal termination of Gaussian 16 at Fri Sep 17 21:58:52 2021.
