 Gaussian 16, Revision A.03,
 Gaussian 16:  ES64L-G16RevA.03 25-Dec-2016

 ----------
 #p opt pm3
 ----------

 -------------------------------------------------
 Conformer number 004. Energy MM = 23.287 kcal/mol
 -------------------------------------------------
 Symbolic Z-matrix:
 Charge =  0 Multiplicity = 1

 SCF Done:  E(RPM3) = -0.214938071891E-01 A.U. after   12 cycles
 SCF Done:  E(RPM3) = -0.256263590886E-01 A.U. after   11 cycles
 SCF Done:  E(RPM3) = -0.264695637812E-01 A.U. after   11 cycles
 SCF Done:  E(RPM3) = -0.271781496711E-01 A.U. after   11 cycles
 SCF Done:  E(RPM3) = -0.273520782356E-01 A.U. after   10 cycles
 SCF Done:  E(RPM3) = -0.276166902939E-01 A.U. after   11 cycles
 SCF Done:  E(RPM3) = -0.278560769779E-01 A.U. after   11 cycles
 SCF Done:  E(RPM3) = -0.279821217749E-01 A.U. after   10 cycles
 SCF Done:  E(RPM3) = -0.280334572439E-01 A.U. after   11 cycles
 SCF Done:  E(RPM3) = -0.280667338184E-01 A.U. after   11 cycles
 SCF Done:  E(RPM3) = -0.281016307953E-01 A.U. after   10 cycles
 SCF Done:  E(RPM3) = -0.281092277133E-01 A.U. after    9 cycles
 SCF Done:  E(RPM3) = -0.281170390310E-01 A.U. after   10 cycles
 SCF Done:  E(RPM3) = -0.281179020211E-01 A.U. after    9 cycles
 SCF Done:  E(RPM3) = -0.281187170242E-01 A.U. after    9 cycles
 SCF Done:  E(RPM3) = -0.281192856860E-01 A.U. after    9 cycles
 SCF Done:  E(RPM3) = -0.281195066538E-01 A.U. after    9 cycles
 SCF Done:  E(RPM3) = -0.281198389847E-01 A.U. after    9 cycles
 SCF Done:  E(RPM3) = -0.281200272408E-01 A.U. after    9 cycles
 SCF Done:  E(RPM3) = -0.281200585443E-01 A.U. after    8 cycles
 Optimization completed.
    -- Stationary point found.

                         Standard orientation:
 ---------------------------------------------------------------------
 Center     Atomic      Atomic             Coordinates (Angstroms)
 Number     Number       Type             X           Y           Z
 ---------------------------------------------------------------------
      1          6           0        0.850235   -0.146963    0.669663
      2          1           0        0.499267    0.327394    1.606983
      3          1           0        1.037994   -1.217001    0.917163
      4          6           0        2.124321    0.498447    0.226227
      5          6           0        2.174640    1.981483    0.331071
      6          1           0        3.114435    2.401319   -0.051396
      7          1           0        2.071947    2.297392    1.378405
      8          1           0        1.351948    2.441517   -0.234606
      9          6           0        3.175581   -0.199601   -0.225332
     10          1           0        4.087585    0.326073   -0.536576
     11          6           0        3.215348   -1.673197   -0.342373
     12          1           0        4.135533   -2.075614    0.100450
     13          1           0        2.360637   -2.153803    0.162836
     14          1           0        3.192459   -1.976211   -1.397649
     15          6           0       -2.949362    1.211246   -0.596919
     16          1           0       -3.521868    1.152914   -1.532247
     17          1           0       -3.528199    1.818485    0.111493
     18          1           0       -2.010420    1.747834   -0.811288
     19          6           0       -2.700573   -0.147941   -0.050164
     20          6           0       -3.914297   -0.880236    0.402403
     21          1           0       -3.687227   -1.886909    0.777525
     22          1           0       -4.418761   -0.331654    1.209586
     23          1           0       -4.631332   -0.987590   -0.422884
     24          6           0       -1.484073   -0.702196    0.038100
     25          1           0       -1.371294   -1.711423    0.456339
     26          6           0       -0.224781   -0.049029   -0.406046
     27          1           0        0.121285   -0.541256   -1.337149
     28          1           0       -0.406213    1.016449   -0.676759
 ---------------------------------------------------------------------

 The electronic state is 1-A.
 Alpha  occ. eigenvalues --   -1.47345  -1.36328  -1.17288  -1.11255  -1.01492
 Alpha  occ. eigenvalues --   -0.94425  -0.86176  -0.80121  -0.67393  -0.64418
 Alpha  occ. eigenvalues --   -0.61364  -0.58805  -0.58518  -0.55876  -0.55098
 Alpha  occ. eigenvalues --   -0.53301  -0.51724  -0.50924  -0.49152  -0.48394
 Alpha  occ. eigenvalues --   -0.48072  -0.47644  -0.47168  -0.47054  -0.44910
 Alpha  occ. eigenvalues --   -0.44010  -0.41691  -0.35126  -0.34349
 Alpha virt. eigenvalues --    0.03549   0.04167   0.12058   0.12682   0.13199
 Alpha virt. eigenvalues --    0.13510   0.13908   0.14254   0.14679   0.14956
 Alpha virt. eigenvalues --    0.15690   0.15698   0.15848   0.16043   0.16336

 Mulliken charges:
               1
     1  C   -0.060604
     2  H    0.057814
     3  H    0.060293
     4  C   -0.128355
     5  C   -0.068100
     6  H    0.041218
     7  H    0.044790
     8  H    0.044743
     9  C   -0.149878
    10  H    0.098365
    11  C   -0.079962
    12  H    0.043098
    13  H    0.048734
    14  H    0.046096
    15  C   -0.076260
    16  H    0.046296
    17  H    0.045412
    18  H    0.049894
    19  C   -0.122813
    20  C   -0.068741
    21  H    0.041542
    22  H    0.044019
    23  H    0.043600
    24  C   -0.156923
    25  H    0.100890
    26  C   -0.067321
    27  H    0.058968
    28  H    0.063185
 Sum of Mulliken charges =  -0.00000

 Dipole moment (field-independent basis, Debye):
    X=             -0.2593    Y=              0.1189    Z=             -0.0537  Tot=              0.2903
 N-N= 3.060044452315D+02 E-N=-4.941698921686D+02  KE=-7.910679824340D+01
 Leave Link  601 at Thu Sep 16 16:25:00 2021, MaxMem=   131072000 cpu:               0.0 elap:               0.0
 (Enter /opt/g16/l9999.exe)
 1\1\GINC-TOTEM\FOpt\RPM3\ZDO\C10H18\JRAMOS\16-Sep-2021\0\\#p opt pm3\\
 Conformer number 004. Energy MM = 23.287 kcal/mol\\0,1\C,-0.7876798828
 ,-0.7320625275,-0.2029862943\H,-0.1986071797,-1.3572794532,-0.90217062
 16\H,-1.1349651444,-1.4164318941,0.6048029056\C,-1.9685420105,-0.15575
 79026,-0.9170741069\C,-1.7119005458,0.3640038511,-2.287075827\H,-2.603
 1652791,0.8158139597,-2.7423482718\H,-1.374968691,-0.4453708773,-2.949
 3775078\H,-0.9228841672,1.1293199955,-2.273401115\C,-3.1959654438,-0.1

 Normal termination of Gaussian 16 at Thu Sep 16 16:25:00 2021.
