 Gaussian 16, Revision A.03,
 Gaussian 16:  ES64L-G16RevA.03 25-Dec-2016

 ----------
 #p opt pm3
 ----------

 -------------------------------------------------
 Conformer number 001. Energy MM = 23.712 kcal/mol
 -------------------------------------------------
 Symbolic Z-matrix:
 Charge =  0 Multiplicity = 1

 SCF Done:  E(RPM3) = -0.209393227406E-01 A.U. after   12 cycles
 SCF Done:  E(RPM3) = -0.258529217001E-01 A.U. after   11 cycles
 SCF Done:  E(RPM3) = -0.261165551887E-01 A.U. after   11 cycles
 SCF Done:  E(RPM3) = -0.275310912096E-01 A.U. after   11 cycles
 SCF Done:  E(RPM3) = -0.278586865531E-01 A.U. after   11 cycles
 SCF Done:  E(RPM3) = -0.281161452903E-01 A.U. after   12 cycles
 SCF Done:  E(RPM3) = -0.281275686485E-01 A.U. after   12 cycles
 SCF Done:  E(RPM3) = -0.282678476780E-01 A.U. after   10 cycles
 SCF Done:  E(RPM3) = -0.282857732520E-01 A.U. after   10 cycles
 SCF Done:  E(RPM3) = -0.283015043424E-01 A.U. after   10 cycles
 SCF Done:  E(RPM3) = -0.283147241943E-01 A.U. after   10 cycles
 SCF Done:  E(RPM3) = -0.283270486339E-01 A.U. after   10 cycles
 SCF Done:  E(RPM3) = -0.283309915157E-01 A.U. after    9 cycles
 SCF Done:  E(RPM3) = -0.283320123095E-01 A.U. after    9 cycles
 SCF Done:  E(RPM3) = -0.283328166129E-01 A.U. after    9 cycles
 SCF Done:  E(RPM3) = -0.283330436224E-01 A.U. after    9 cycles
 SCF Done:  E(RPM3) = -0.283332089161E-01 A.U. after    9 cycles
 SCF Done:  E(RPM3) = -0.283333114899E-01 A.U. after    8 cycles
 SCF Done:  E(RPM3) = -0.283334005989E-01 A.U. after    8 cycles
 SCF Done:  E(RPM3) = -0.283334298983E-01 A.U. after    8 cycles
 Optimization completed.
    -- Stationary point found.

                         Standard orientation:
 ---------------------------------------------------------------------
 Center     Atomic      Atomic             Coordinates (Angstroms)
 Number     Number       Type             X           Y           Z
 ---------------------------------------------------------------------
      1          6           0       -0.643540   -0.480937   -0.740135
      2          1           0       -0.695883   -1.565152   -0.967021
      3          1           0       -0.305929    0.004077   -1.677688
      4          6           0       -1.994765    0.041016   -0.359461
      5          6           0       -2.245398    1.472911   -0.665739
      6          1           0       -2.210558    1.650120   -1.749077
      7          1           0       -1.482745    2.110957   -0.198464
      8          1           0       -3.232072    1.804677   -0.302812
      9          6           0       -2.899129   -0.760467    0.219625
     10          1           0       -2.648537   -1.811248    0.415140
     11          6           0       -4.254550   -0.339739    0.634218
     12          1           0       -4.438167    0.730846    0.444538
     13          1           0       -5.018759   -0.911145    0.090971
     14          1           0       -4.403876   -0.519513    1.706981
     15          6           0        4.159028   -0.658902   -0.267519
     16          1           0        4.848836   -0.657775    0.587422
     17          1           0        4.062977   -1.696131   -0.614798
     18          1           0        4.631185   -0.081592   -1.074211
     19          6           0        2.852577   -0.056559    0.112737
     20          6           0        2.923147    1.338407    0.620021
     21          1           0        1.921426    1.770199    0.780028
     22          1           0        3.459599    1.374955    1.577561
     23          1           0        3.458139    1.985805   -0.087296
     24          6           0        1.711197   -0.748722   -0.001631
     25          1           0        1.730474   -1.776683   -0.387768
     26          6           0        0.369015   -0.230266    0.371311
     27          1           0        0.041888   -0.729725    1.305455
     28          1           0        0.416504    0.856878    0.610482
 ---------------------------------------------------------------------

 The electronic state is 1-A.
 Alpha  occ. eigenvalues --   -1.46958  -1.36637  -1.19413  -1.07498  -1.01532
 Alpha  occ. eigenvalues --   -0.96532  -0.86779  -0.78719  -0.67180  -0.64778
 Alpha  occ. eigenvalues --   -0.61274  -0.59496  -0.57495  -0.56755  -0.55161
 Alpha  occ. eigenvalues --   -0.53463  -0.51324  -0.50624  -0.49069  -0.48372
 Alpha  occ. eigenvalues --   -0.48326  -0.47749  -0.47349  -0.46847  -0.44569
 Alpha  occ. eigenvalues --   -0.43746  -0.42171  -0.35073  -0.34364
 Alpha virt. eigenvalues --    0.03531   0.04202   0.12017   0.12730   0.13351
 Alpha virt. eigenvalues --    0.13582   0.13721   0.14241   0.14793   0.14885
 Alpha virt. eigenvalues --    0.15501   0.15795   0.15930   0.16324   0.16348

 Mulliken charges:
               1
     1  C   -0.053898
     2  H    0.052724
     3  H    0.055858
     4  C   -0.128112
     5  C   -0.075262
     6  H    0.046749
     7  H    0.046374
     8  H    0.049450
     9  C   -0.150550
    10  H    0.098579
    11  C   -0.078860
    12  H    0.047754
    13  H    0.044801
    14  H    0.044209
    15  C   -0.068711
    16  H    0.043567
    17  H    0.041610
    18  H    0.043955
    19  C   -0.122893
    20  C   -0.076310
    21  H    0.049965
    22  H    0.046279
    23  H    0.045344
    24  C   -0.156862
    25  H    0.101225
    26  C   -0.068711
    27  H    0.058813
    28  H    0.062913
 Sum of Mulliken charges =  -0.00000

 Dipole moment (field-independent basis, Debye):
    X=              0.0870    Y=              0.3355    Z=              0.0725  Tot=              0.3541
 N-N= 3.036140746940D+02 E-N=-4.893918755179D+02  KE=-7.910786561792D+01
 Leave Link  601 at Thu Sep 16 16:24:58 2021, MaxMem=   131072000 cpu:               0.0 elap:               0.0
 (Enter /opt/g16/l9999.exe)
 1\1\GINC-TOTEM\FOpt\RPM3\ZDO\C10H18\JRAMOS\16-Sep-2021\0\\#p opt pm3\\
 Conformer number 001. Energy MM = 23.712 kcal/mol\\0,1\C,-0.5835657027
 ,-0.6827714835,-0.522064836\H,-0.6549363555,-1.7798281302,-0.376765504
 9\H,-0.0463689606,-0.5432213637,-1.4813204875\C,-1.949751136,-0.076122
 2895,-0.6151750539\C,-2.0538062275,1.162780627,-1.4283410935\H,-1.8035
 893108,0.9601789872,-2.4783798437\H,-1.3579281987,1.9297148542,-1.0613
 868684\H,-3.0704155942,1.5883349597,-1.4015171536\C,-2.9927616546,-0.6

 Normal termination of Gaussian 16 at Thu Sep 16 16:24:58 2021.
