 Gaussian 16, Revision A.03,
 Gaussian 16:  ES64L-G16RevA.03 25-Dec-2016

 ----------
 #p opt pm3
 ----------

 -------------------------------------------------
 Conformer number 005. Energy MM = 23.242 kcal/mol
 -------------------------------------------------
 Symbolic Z-matrix:
 Charge =  0 Multiplicity = 1

 SCF Done:  E(RPM3) = -0.217989868707E-01 A.U. after   12 cycles
 SCF Done:  E(RPM3) = -0.260044345466E-01 A.U. after   11 cycles
 SCF Done:  E(RPM3) = -0.268268195538E-01 A.U. after   11 cycles
 SCF Done:  E(RPM3) = -0.271480791997E-01 A.U. after   11 cycles
 SCF Done:  E(RPM3) = -0.272586148469E-01 A.U. after   10 cycles
 SCF Done:  E(RPM3) = -0.276325253904E-01 A.U. after   11 cycles
 SCF Done:  E(RPM3) = -0.278259770371E-01 A.U. after   12 cycles
 SCF Done:  E(RPM3) = -0.279726365135E-01 A.U. after   11 cycles
 SCF Done:  E(RPM3) = -0.280505605078E-01 A.U. after   10 cycles
 SCF Done:  E(RPM3) = -0.280948781388E-01 A.U. after   11 cycles
 SCF Done:  E(RPM3) = -0.281566976768E-01 A.U. after    9 cycles
 SCF Done:  E(RPM3) = -0.281659424325E-01 A.U. after   10 cycles
 SCF Done:  E(RPM3) = -0.281687212705E-01 A.U. after    9 cycles
 SCF Done:  E(RPM3) = -0.281697824256E-01 A.U. after    9 cycles
 SCF Done:  E(RPM3) = -0.281704116213E-01 A.U. after    9 cycles
 SCF Done:  E(RPM3) = -0.281709279706E-01 A.U. after    9 cycles
 SCF Done:  E(RPM3) = -0.281713714558E-01 A.U. after    9 cycles
 SCF Done:  E(RPM3) = -0.281715291728E-01 A.U. after    8 cycles
 SCF Done:  E(RPM3) = -0.281715633407E-01 A.U. after    8 cycles
 SCF Done:  E(RPM3) = -0.281715724576E-01 A.U. after    8 cycles
 Optimization completed.
    -- Stationary point found.

                         Standard orientation:
 ---------------------------------------------------------------------
 Center     Atomic      Atomic             Coordinates (Angstroms)
 Number     Number       Type             X           Y           Z
 ---------------------------------------------------------------------
      1          6           0       -0.883431   -0.517593    0.676796
      2          1           0       -0.702307    0.355107    1.344432
      3          1           0       -0.859717   -1.412896    1.329490
      4          6           0       -2.231658   -0.396090    0.041222
      5          6           0       -2.822984   -1.657873   -0.479527
      6          1           0       -2.153835   -2.129299   -1.213258
      7          1           0       -2.976984   -2.377142    0.336662
      8          1           0       -3.792782   -1.500150   -0.969833
      9          6           0       -2.892059    0.766684   -0.049385
     10          1           0       -3.880913    0.797652   -0.525004
     11          6           0       -2.385795    2.060254    0.457686
     12          1           0       -1.489187    1.937996    1.088460
     13          1           0       -3.150269    2.570692    1.057542
     14          1           0       -2.118920    2.722662   -0.376553
     15          6           0        3.935507   -0.236616    0.638389
     16          1           0        4.714669   -0.480284   -0.096659
     17          1           0        4.257269    0.666906    1.174192
     18          1           0        3.897840   -1.057783    1.366358
     19          6           0        2.630214   -0.007857   -0.038401
     20          6           0        2.626882    1.073975   -1.057146
     21          1           0        1.613672    1.273593   -1.443198
     22          1           0        3.015516    2.010327   -0.635428
     23          1           0        3.262458    0.803172   -1.910789
     24          6           0        1.553062   -0.743531    0.267315
     25          1           0        1.624165   -1.526459    1.034217
     26          6           0        0.219585   -0.592846   -0.371960
     27          1           0        0.190582    0.310811   -1.022018
     28          1           0        0.052806   -1.455956   -1.048559
 ---------------------------------------------------------------------

 The electronic state is 1-A.
 Alpha  occ. eigenvalues --   -1.47330  -1.36302  -1.17453  -1.11073  -1.01433
 Alpha  occ. eigenvalues --   -0.94486  -0.86190  -0.80100  -0.67510  -0.63998
 Alpha  occ. eigenvalues --   -0.61528  -0.59105  -0.57983  -0.56720  -0.55114
 Alpha  occ. eigenvalues --   -0.53262  -0.51103  -0.50837  -0.48766  -0.48376
 Alpha  occ. eigenvalues --   -0.48316  -0.47567  -0.47209  -0.46968  -0.45918
 Alpha  occ. eigenvalues --   -0.43156  -0.41918  -0.35260  -0.34220
 Alpha virt. eigenvalues --    0.03512   0.04208   0.12064   0.12661   0.13321
 Alpha virt. eigenvalues --    0.13446   0.14003   0.14195   0.14776   0.14925
 Alpha virt. eigenvalues --    0.15502   0.15731   0.15900   0.15948   0.16346

 Mulliken charges:
               1
     1  C   -0.060711
     2  H    0.062760
     3  H    0.055387
     4  C   -0.128516
     5  C   -0.068413
     6  H    0.045410
     7  H    0.044421
     8  H    0.041279
     9  C   -0.149731
    10  H    0.098252
    11  C   -0.080707
    12  H    0.050083
    13  H    0.043206
    14  H    0.045578
    15  C   -0.068766
    16  H    0.043620
    17  H    0.043957
    18  H    0.041564
    19  C   -0.122795
    20  C   -0.076865
    21  H    0.050792
    22  H    0.045323
    23  H    0.046306
    24  C   -0.157494
    25  H    0.101210
    26  C   -0.067146
    27  H    0.063732
    28  H    0.058265
 Sum of Mulliken charges =  -0.00000

 Dipole moment (field-independent basis, Debye):
    X=              0.2316    Y=              0.1304    Z=             -0.0992  Tot=              0.2837
 N-N= 3.069539545322D+02 E-N=-4.960714053707D+02  KE=-7.910884224515D+01
 Leave Link  601 at Thu Sep 16 16:24:59 2021, MaxMem=   131072000 cpu:               0.0 elap:               0.0
 (Enter /opt/g16/l9999.exe)
 1\1\GINC-TOTEM\FOpt\RPM3\ZDO\C10H18\JRAMOS\16-Sep-2021\0\\#p opt pm3\\
 Conformer number 005. Energy MM = 23.242 kcal/mol\\0,1\C,-0.7158309119
 ,-0.5340195816,-0.716283572\H,-0.7604624893,-1.3952880414,-0.011745281
 1\H,-0.3869965416,-0.9506303964,-1.6891361706\C,-2.0762951782,0.069248
 0834,-0.8633828888\C,-2.2980097917,0.8871661018,-2.0860007729\H,-1.566
 239824,1.705196456,-2.1468576344\H,-2.1805535392,0.2714218161,-2.98838
 15355\H,-3.2995342196,1.3362098199,-2.119082975\C,-3.0561681088,-0.116

 Normal termination of Gaussian 16 at Thu Sep 16 16:24:59 2021.
