 Gaussian 16, Revision A.03,
 Gaussian 16:  ES64L-G16RevA.03 25-Dec-2016

 ----------
 #p opt pm3
 ----------

 -------------------------------------------------
 Conformer number 007. Energy MM = 24.539 kcal/mol
 -------------------------------------------------
 Symbolic Z-matrix:
 Charge =  0 Multiplicity = 1

 SCF Done:  E(RPM3) = -0.185759959452E-01 A.U. after   12 cycles
 SCF Done:  E(RPM3) = -0.243183362921E-01 A.U. after   11 cycles
 SCF Done:  E(RPM3) = -0.251989944734E-01 A.U. after   11 cycles
 SCF Done:  E(RPM3) = -0.258300337555E-01 A.U. after   11 cycles
 SCF Done:  E(RPM3) = -0.258717754808E-01 A.U. after   11 cycles
 SCF Done:  E(RPM3) = -0.261228264132E-01 A.U. after   11 cycles
 SCF Done:  E(RPM3) = -0.262486029766E-01 A.U. after   11 cycles
 SCF Done:  E(RPM3) = -0.263862883898E-01 A.U. after   10 cycles
 SCF Done:  E(RPM3) = -0.264375656189E-01 A.U. after   11 cycles
 SCF Done:  E(RPM3) = -0.264485486625E-01 A.U. after   10 cycles
 SCF Done:  E(RPM3) = -0.274110398901E-01 A.U. after   11 cycles
 SCF Done:  E(RPM3) = -0.275479027579E-01 A.U. after   11 cycles
 SCF Done:  E(RPM3) = -0.275936410287E-01 A.U. after   11 cycles
 SCF Done:  E(RPM3) = -0.276017370648E-01 A.U. after    9 cycles
 SCF Done:  E(RPM3) = -0.276029278856E-01 A.U. after    9 cycles
 SCF Done:  E(RPM3) = -0.276034022689E-01 A.U. after    9 cycles
 SCF Done:  E(RPM3) = -0.276040927171E-01 A.U. after    9 cycles
 SCF Done:  E(RPM3) = -0.276046768731E-01 A.U. after    9 cycles
 SCF Done:  E(RPM3) = -0.276049509508E-01 A.U. after    9 cycles
 SCF Done:  E(RPM3) = -0.276049827062E-01 A.U. after    8 cycles
 Optimization completed.
    -- Stationary point found.

                         Standard orientation:
 ---------------------------------------------------------------------
 Center     Atomic      Atomic             Coordinates (Angstroms)
 Number     Number       Type             X           Y           Z
 ---------------------------------------------------------------------
      1          6           0        0.629913    0.859739   -0.232450
      2          1           0        0.582063    1.345368   -1.229165
      3          1           0        0.341774    1.644769    0.495400
      4          6           0        2.047770    0.439073    0.007917
      5          6           0        2.906671    1.459916    0.662679
      6          1           0        3.957203    1.131798    0.727751
      7          1           0        2.883630    2.405918    0.105830
      8          1           0        2.557113    1.664472    1.683634
      9          6           0        2.498449   -0.763064   -0.375726
     10          1           0        1.792179   -1.465380   -0.849304
     11          6           0        3.885983   -1.242180   -0.209451
     12          1           0        4.541291   -0.478971    0.242200
     13          1           0        3.913159   -2.130486    0.435315
     14          1           0        4.316734   -1.521216   -1.180003
     15          6           0       -2.946233   -0.764755    1.310762
     16          1           0       -3.473187   -1.724688    1.227922
     17          1           0       -1.951492   -0.964267    1.742083
     18          1           0       -3.501117   -0.139746    2.022894
     19          6           0       -2.854551   -0.101868   -0.016007
     20          6           0       -4.154877    0.319073   -0.604436
     21          1           0       -4.824748   -0.543963   -0.719409
     22          1           0       -4.042582    0.785614   -1.592065
     23          1           0       -4.658797    1.044076    0.049318
     24          6           0       -1.700571    0.112051   -0.662302
     25          1           0       -1.706198    0.611187   -1.640707
     26          6           0       -0.363402   -0.291798   -0.156075
     27          1           0       -0.431565   -0.670283    0.888668
     28          1           0        0.009633   -1.151331   -0.759823
 ---------------------------------------------------------------------

 The electronic state is 1-A.
 Alpha  occ. eigenvalues --   -1.47190  -1.36652  -1.18861  -1.09010  -1.01419
 Alpha  occ. eigenvalues --   -0.95748  -0.86085  -0.79944  -0.66531  -0.64731
 Alpha  occ. eigenvalues --   -0.61056  -0.60037  -0.57830  -0.56288  -0.55178
 Alpha  occ. eigenvalues --   -0.53909  -0.51478  -0.50125  -0.48676  -0.48370
 Alpha  occ. eigenvalues --   -0.48179  -0.47601  -0.47574  -0.46816  -0.44867
 Alpha  occ. eigenvalues --   -0.43784  -0.42342  -0.34657  -0.34421
 Alpha virt. eigenvalues --    0.03670   0.04108   0.11906   0.12628   0.13090
 Alpha virt. eigenvalues --    0.13656   0.13918   0.14201   0.14883   0.14953
 Alpha virt. eigenvalues --    0.15337   0.15750   0.15876   0.16198   0.16349

 Mulliken charges:
               1
     1  C   -0.053152
     2  H    0.056353
     3  H    0.055673
     4  C   -0.124881
     5  C   -0.075753
     6  H    0.049833
     7  H    0.045235
     8  H    0.046639
     9  C   -0.166198
    10  H    0.105255
    11  C   -0.073824
    12  H    0.047074
    13  H    0.043916
    14  H    0.043810
    15  C   -0.076662
    16  H    0.046147
    17  H    0.050728
    18  H    0.045612
    19  C   -0.122460
    20  C   -0.068877
    21  H    0.043633
    22  H    0.041595
    23  H    0.044076
    24  C   -0.155697
    25  H    0.101442
    26  C   -0.076547
    27  H    0.063826
    28  H    0.063204
 Sum of Mulliken charges =  -0.00000

 Dipole moment (field-independent basis, Debye):
    X=             -0.0764    Y=              0.0274    Z=              0.1997  Tot=              0.2156
 N-N= 3.033385024983D+02 E-N=-4.888222048228D+02  KE=-7.912284405891D+01
 Leave Link  601 at Thu Sep 16 16:25:04 2021, MaxMem=   131072000 cpu:               0.0 elap:               0.0
 (Enter /opt/g16/l9999.exe)
 1\1\GINC-TOTEM\FOpt\RPM3\ZDO\C10H18\JRAMOS\16-Sep-2021\0\\#p opt pm3\\
 Conformer number 007. Energy MM = 24.539 kcal/mol\\0,1\C,-0.6410907706
 ,0.7791600839,-0.3828268226\H,-0.7772757258,1.7750933611,0.087423306\H
 ,-0.1066565906,0.9701240733,-1.3351785896\C,-1.9992920277,0.2135339779
 ,-0.6663990093\C,-2.5645098638,0.5648836485,-1.9951678466\H,-3.5992372
 096,0.2020282081,-2.1100076747\H,-2.5713802079,1.6529623763,-2.1420292
 388\H,-1.9643248016,0.1225625753,-2.8017124615\C,-2.6546291162,-0.5269

 Normal termination of Gaussian 16 at Thu Sep 16 16:25:04 2021.
