 Gaussian 16, Revision A.03,
 Gaussian 16:  ES64L-G16RevA.03 25-Dec-2016

 ----------
 #p opt pm3
 ----------

 -------------------------------------------------
 Conformer number 008. Energy MM = 23.486 kcal/mol
 -------------------------------------------------
 Symbolic Z-matrix:
 Charge =  0 Multiplicity = 1

 SCF Done:  E(RPM3) = -0.193180735087E-01 A.U. after   12 cycles
 SCF Done:  E(RPM3) = -0.244148195482E-01 A.U. after   11 cycles
 SCF Done:  E(RPM3) = -0.248106692193E-01 A.U. after   11 cycles
 SCF Done:  E(RPM3) = -0.262445137874E-01 A.U. after   11 cycles
 SCF Done:  E(RPM3) = -0.265642866287E-01 A.U. after   11 cycles
 SCF Done:  E(RPM3) = -0.268410853673E-01 A.U. after   11 cycles
 SCF Done:  E(RPM3) = -0.272170159656E-01 A.U. after   12 cycles
 SCF Done:  E(RPM3) = -0.272335983402E-01 A.U. after   11 cycles
 SCF Done:  E(RPM3) = -0.273687383690E-01 A.U. after   11 cycles
 SCF Done:  E(RPM3) = -0.275188836734E-01 A.U. after   10 cycles
 SCF Done:  E(RPM3) = -0.276415418283E-01 A.U. after    9 cycles
 SCF Done:  E(RPM3) = -0.276435409161E-01 A.U. after    9 cycles
 SCF Done:  E(RPM3) = -0.276460077853E-01 A.U. after    9 cycles
 SCF Done:  E(RPM3) = -0.276477984823E-01 A.U. after    9 cycles
 SCF Done:  E(RPM3) = -0.276483197518E-01 A.U. after    9 cycles
 SCF Done:  E(RPM3) = -0.276484757310E-01 A.U. after    8 cycles
 SCF Done:  E(RPM3) = -0.276485391925E-01 A.U. after    8 cycles
 SCF Done:  E(RPM3) = -0.276485896611E-01 A.U. after    8 cycles
 SCF Done:  E(RPM3) = -0.276486252449E-01 A.U. after    8 cycles
 SCF Done:  E(RPM3) = -0.276486399844E-01 A.U. after    8 cycles
 Optimization completed.
    -- Stationary point found.

                         Standard orientation:
 ---------------------------------------------------------------------
 Center     Atomic      Atomic             Coordinates (Angstroms)
 Number     Number       Type             X           Y           Z
 ---------------------------------------------------------------------
      1          6           0        1.004865   -0.669448    0.941397
      2          1           0        0.824531    0.217280    1.589043
      3          1           0        1.385363   -1.465903    1.611259
      4          6           0        2.060798   -0.366683   -0.074570
      5          6           0        2.469368   -1.515947   -0.927562
      6          1           0        3.096659   -2.214711   -0.358113
      7          1           0        1.575332   -2.068260   -1.265734
      8          1           0        3.033363   -1.207606   -1.816745
      9          6           0        2.622637    0.840473   -0.222425
     10          1           0        3.398654    0.988581   -0.984722
     11          6           0        2.281096    2.036493    0.577069
     12          1           0        3.172368    2.433268    1.080597
     13          1           0        1.524760    1.823821    1.350777
     14          1           0        1.881900    2.829346   -0.069388
     15          6           0       -3.088737    1.336572   -0.764642
     16          1           0       -3.859528    1.002068   -1.472225
     17          1           0       -3.588022    1.934695    0.009945
     18          1           0       -2.405503    2.002280   -1.308397
     19          6           0       -2.392254    0.169833   -0.158865
     20          6           0       -3.270121   -0.793802    0.554469
     21          1           0       -2.686687   -1.533428    1.127485
     22          1           0       -3.936054   -0.275083    1.256572
     23          1           0       -3.899268   -1.344008   -0.157872
     24          6           0       -1.065115    0.021565   -0.267366
     25          1           0       -0.465624    0.771651   -0.801453
     26          6           0       -0.299268   -1.121400    0.293701
     27          1           0       -0.072634   -1.839955   -0.528313
     28          1           0       -0.919228   -1.679969    1.030046
 ---------------------------------------------------------------------

 The electronic state is 1-A.
 Alpha  occ. eigenvalues --   -1.47903  -1.35721  -1.17831  -1.10227  -1.01280
 Alpha  occ. eigenvalues --   -0.94897  -0.86876  -0.79492  -0.67049  -0.64123
 Alpha  occ. eigenvalues --   -0.61247  -0.59909  -0.57803  -0.56517  -0.55214
 Alpha  occ. eigenvalues --   -0.53680  -0.51063  -0.50316  -0.48455  -0.48256
 Alpha  occ. eigenvalues --   -0.47918  -0.47611  -0.47258  -0.46945  -0.45744
 Alpha  occ. eigenvalues --   -0.42773  -0.42397  -0.35103  -0.34030
 Alpha virt. eigenvalues --    0.03678   0.04295   0.12391   0.12449   0.13237
 Alpha virt. eigenvalues --    0.13579   0.13946   0.14237   0.14753   0.14953
 Alpha virt. eigenvalues --    0.15499   0.15819   0.15908   0.16093   0.16348

 Mulliken charges:
               1
     1  C   -0.060988
     2  H    0.065766
     3  H    0.053660
     4  C   -0.126688
     5  C   -0.076921
     6  H    0.045102
     7  H    0.050437
     8  H    0.043602
     9  C   -0.151759
    10  H    0.097864
    11  C   -0.079834
    12  H    0.044022
    13  H    0.049721
    14  H    0.044634
    15  C   -0.067336
    16  H    0.042851
    17  H    0.043209
    18  H    0.041808
    19  C   -0.128288
    20  C   -0.074992
    21  H    0.048409
    22  H    0.044709
    23  H    0.045923
    24  C   -0.155982
    25  H    0.108402
    26  C   -0.072177
    27  H    0.064881
    28  H    0.059966
 Sum of Mulliken charges =   0.00000

 Dipole moment (field-independent basis, Debye):
    X=             -0.2247    Y=             -0.1560    Z=              0.1065  Tot=              0.2935
 N-N= 3.104075990032D+02 E-N=-5.029939234511D+02  KE=-7.912378989852D+01
 Leave Link  601 at Thu Sep 16 16:25:00 2021, MaxMem=   131072000 cpu:               0.0 elap:               0.0
 (Enter /opt/g16/l9999.exe)
 1\1\GINC-TOTEM\FOpt\RPM3\ZDO\C10H18\JRAMOS\16-Sep-2021\0\\#p opt pm3\\
 Conformer number 008. Energy MM = 23.486 kcal/mol\\0,1\C,-1.1570049817
 ,1.0659279254,0.2477377958\H,-1.3137399522,0.7103432189,1.2904487307\H
 ,-1.5554978519,2.099293331,0.2131826681\C,-1.9416425911,0.2281249982,-
 0.712094189\C,-1.9006465189,0.6798152725,-2.1297076648\H,-2.523622092,
 1.5736462784,-2.267563513\H,-0.8663012026,0.9466484951,-2.4083485997\H
 ,-2.2535505539,-0.0861222411,-2.8315683844\C,-2.6471787253,-0.85116559

 Normal termination of Gaussian 16 at Thu Sep 16 16:25:00 2021.
