 Gaussian 16, Revision A.03,
 Gaussian 16:  ES64L-G16RevA.03 25-Dec-2016

 ----------
 #p opt pm3
 ----------

 -------------------------------------------------
 Conformer number 007. Energy MM = 24.539 kcal/mol
 -------------------------------------------------
 Symbolic Z-matrix:
 Charge =  0 Multiplicity = 1

 SCF Done:  E(RPM3) = -0.185802689157E-01 A.U. after   12 cycles
 SCF Done:  E(RPM3) = -0.243200911240E-01 A.U. after   11 cycles
 SCF Done:  E(RPM3) = -0.251996184061E-01 A.U. after   11 cycles
 SCF Done:  E(RPM3) = -0.258301072859E-01 A.U. after   11 cycles
 SCF Done:  E(RPM3) = -0.258715679755E-01 A.U. after   11 cycles
 SCF Done:  E(RPM3) = -0.261237282698E-01 A.U. after   11 cycles
 SCF Done:  E(RPM3) = -0.262483604987E-01 A.U. after   11 cycles
 SCF Done:  E(RPM3) = -0.263863774620E-01 A.U. after   10 cycles
 SCF Done:  E(RPM3) = -0.264374984641E-01 A.U. after   11 cycles
 SCF Done:  E(RPM3) = -0.264485063051E-01 A.U. after   10 cycles
 SCF Done:  E(RPM3) = -0.275556175628E-01 A.U. after   10 cycles
 SCF Done:  E(RPM3) = -0.275832986416E-01 A.U. after   10 cycles
 SCF Done:  E(RPM3) = -0.275977403035E-01 A.U. after   10 cycles
 SCF Done:  E(RPM3) = -0.276007058732E-01 A.U. after    9 cycles
 SCF Done:  E(RPM3) = -0.276015309688E-01 A.U. after    9 cycles
 SCF Done:  E(RPM3) = -0.276030422241E-01 A.U. after    9 cycles
 SCF Done:  E(RPM3) = -0.276039424950E-01 A.U. after    9 cycles
 SCF Done:  E(RPM3) = -0.276046576546E-01 A.U. after    9 cycles
 SCF Done:  E(RPM3) = -0.276049270851E-01 A.U. after    9 cycles
 SCF Done:  E(RPM3) = -0.276049833262E-01 A.U. after    8 cycles
 Optimization completed.
    -- Stationary point found.

                         Standard orientation:
 ---------------------------------------------------------------------
 Center     Atomic      Atomic             Coordinates (Angstroms)
 Number     Number       Type             X           Y           Z
 ---------------------------------------------------------------------
      1          6           0        0.630048    0.860077   -0.231851
      2          1           0        0.582216    1.346182   -1.228328
      3          1           0        0.342100    1.644782    0.496418
      4          6           0        2.047871    0.439068    0.008155
      5          6           0        2.907017    1.459481    0.663299
      6          1           0        3.957469    1.131089    0.728262
      7          1           0        2.884196    2.405667    0.106747
      8          1           0        2.557528    1.663810    1.684326
      9          6           0        2.498327   -0.762941   -0.376156
     10          1           0        1.791911   -1.464898   -0.850047
     11          6           0        3.885786   -1.242391   -0.210167
     12          1           0        4.541292   -0.479448    0.241648
     13          1           0        3.912829   -2.130889    0.434345
     14          1           0        4.316404   -1.521246   -1.180831
     15          6           0       -2.946436   -0.766178    1.309964
     16          1           0       -3.473457   -1.725982    1.226052
     17          1           0       -1.951756   -0.966215    1.741182
     18          1           0       -3.501344   -0.141910    2.022732
     19          6           0       -2.854609   -0.101859   -0.016079
     20          6           0       -4.154867    0.319641   -0.604256
     21          1           0       -4.824630   -0.543327   -0.720384
     22          1           0       -4.042446    0.787365   -1.591312
     23          1           0       -4.658999    1.043802    0.050269
     24          6           0       -1.700552    0.112918   -0.661934
     25          1           0       -1.706069    0.613211   -1.639748
     26          6           0       -0.363432   -0.291321   -0.155949
     27          1           0       -0.431585   -0.670310    0.888617
     28          1           0        0.009420   -1.150660   -0.760104
 ---------------------------------------------------------------------

 The electronic state is 1-A.
 Alpha  occ. eigenvalues --   -1.47190  -1.36651  -1.18862  -1.09010  -1.01419
 Alpha  occ. eigenvalues --   -0.95748  -0.86085  -0.79944  -0.66532  -0.64731
 Alpha  occ. eigenvalues --   -0.61056  -0.60035  -0.57830  -0.56288  -0.55178
 Alpha  occ. eigenvalues --   -0.53909  -0.51478  -0.50125  -0.48676  -0.48369
 Alpha  occ. eigenvalues --   -0.48178  -0.47601  -0.47574  -0.46816  -0.44867
 Alpha  occ. eigenvalues --   -0.43784  -0.42344  -0.34657  -0.34421
 Alpha virt. eigenvalues --    0.03670   0.04108   0.11905   0.12628   0.13089
 Alpha virt. eigenvalues --    0.13656   0.13918   0.14201   0.14883   0.14953
 Alpha virt. eigenvalues --    0.15337   0.15750   0.15876   0.16198   0.16349

 Mulliken charges:
               1
     1  C   -0.053150
     2  H    0.056352
     3  H    0.055676
     4  C   -0.124882
     5  C   -0.075751
     6  H    0.049832
     7  H    0.045234
     8  H    0.046639
     9  C   -0.166195
    10  H    0.105256
    11  C   -0.073825
    12  H    0.047074
    13  H    0.043916
    14  H    0.043809
    15  C   -0.076655
    16  H    0.046145
    17  H    0.050724
    18  H    0.045609
    19  C   -0.122466
    20  C   -0.068876
    21  H    0.043631
    22  H    0.041596
    23  H    0.044075
    24  C   -0.155695
    25  H    0.101444
    26  C   -0.076548
    27  H    0.063826
    28  H    0.063205
 Sum of Mulliken charges =   0.00000

 Dipole moment (field-independent basis, Debye):
    X=             -0.0763    Y=              0.0273    Z=              0.1996  Tot=              0.2155
 N-N= 3.033371351239D+02 E-N=-4.888194511076D+02  KE=-7.912283969587D+01
 Leave Link  601 at Tue Sep  6 13:42:30 2022, MaxMem=   131072000 cpu:               0.0 elap:               0.0
 (Enter /opt/g16/l9999.exe)
 1\1\GINC-TOTEM2\FOpt\RPM3\ZDO\C10H18\JRAMOS\06-Sep-2022\0\\#p opt pm3\
 \Conformer number 007. Energy MM = 24.539 kcal/mol\\0,1\C,0.623334255,
 0.3105533364,-0.9864010218\H,0.4875960599,-0.5235594921,-1.7056941114\
 H,0.3292876148,1.227848258,-1.5351802217\C,2.0762733268,0.3770232169,-
 0.6263670578\C,2.9061264539,1.2391840671,-1.507621134\H,3.9771073077,1
 .1752479232,-1.2538029479\H,2.7918649932,0.9476805055,-2.5600027244\H,
 2.6040928931,2.2913531194,-1.4175919892\C,2.5782917395,-0.3226932665,0

 Normal termination of Gaussian 16 at Tue Sep  6 13:42:30 2022.
