 Gaussian 16, Revision A.03,
 Gaussian 16:  ES64L-G16RevA.03 25-Dec-2016

 ----------
 #p opt pm3
 ----------

 -------------------------------------------------
 Conformer number 001. Energy MM = 23.712 kcal/mol
 -------------------------------------------------
 Symbolic Z-matrix:
 Charge =  0 Multiplicity = 1

 SCF Done:  E(RPM3) = -0.209457229413E-01 A.U. after   12 cycles
 SCF Done:  E(RPM3) = -0.258525737754E-01 A.U. after   11 cycles
 SCF Done:  E(RPM3) = -0.261165489082E-01 A.U. after   11 cycles
 SCF Done:  E(RPM3) = -0.275313906744E-01 A.U. after   11 cycles
 SCF Done:  E(RPM3) = -0.278589904127E-01 A.U. after   11 cycles
 SCF Done:  E(RPM3) = -0.281164630280E-01 A.U. after   12 cycles
 SCF Done:  E(RPM3) = -0.281282804266E-01 A.U. after   12 cycles
 SCF Done:  E(RPM3) = -0.282679749684E-01 A.U. after   10 cycles
 SCF Done:  E(RPM3) = -0.282858676048E-01 A.U. after   10 cycles
 SCF Done:  E(RPM3) = -0.283015468957E-01 A.U. after   10 cycles
 SCF Done:  E(RPM3) = -0.283147187589E-01 A.U. after   10 cycles
 SCF Done:  E(RPM3) = -0.283269785012E-01 A.U. after   10 cycles
 SCF Done:  E(RPM3) = -0.283309802998E-01 A.U. after    9 cycles
 SCF Done:  E(RPM3) = -0.283320051359E-01 A.U. after    9 cycles
 SCF Done:  E(RPM3) = -0.283328153482E-01 A.U. after    9 cycles
 SCF Done:  E(RPM3) = -0.283330431318E-01 A.U. after    9 cycles
 SCF Done:  E(RPM3) = -0.283332089688E-01 A.U. after    9 cycles
 SCF Done:  E(RPM3) = -0.283333094617E-01 A.U. after    8 cycles
 SCF Done:  E(RPM3) = -0.283333996879E-01 A.U. after    8 cycles
 SCF Done:  E(RPM3) = -0.283334297582E-01 A.U. after    8 cycles
 Optimization completed.
    -- Stationary point found.

                         Standard orientation:
 ---------------------------------------------------------------------
 Center     Atomic      Atomic             Coordinates (Angstroms)
 Number     Number       Type             X           Y           Z
 ---------------------------------------------------------------------
      1          6           0       -0.643541   -0.480947   -0.740133
      2          1           0       -0.695887   -1.565163   -0.967010
      3          1           0       -0.305930    0.004059   -1.677690
      4          6           0       -1.994764    0.041012   -0.359462
      5          6           0       -2.245398    1.472904   -0.665756
      6          1           0       -2.210569    1.650099   -1.749097
      7          1           0       -1.482737    2.110955   -0.198498
      8          1           0       -3.232066    1.804677   -0.302822
      9          6           0       -2.899129   -0.760463    0.219635
     10          1           0       -2.648538   -1.811242    0.415162
     11          6           0       -4.254549   -0.339729    0.634223
     12          1           0       -4.438163    0.730856    0.444537
     13          1           0       -5.018758   -0.911135    0.090976
     14          1           0       -4.403879   -0.519498    1.706987
     15          6           0        4.159029   -0.658894   -0.267524
     16          1           0        4.848838   -0.657771    0.587416
     17          1           0        4.062980   -1.696121   -0.614810
     18          1           0        4.631183   -0.081578   -1.074213
     19          6           0        2.852576   -0.056557    0.112737
     20          6           0        2.923144    1.338406    0.620032
     21          1           0        1.921422    1.770192    0.780046
     22          1           0        3.459599    1.374947    1.577571
     23          1           0        3.458131    1.985810   -0.087282
     24          6           0        1.711199   -0.748722   -0.001634
     25          1           0        1.730477   -1.776680   -0.387778
     26          6           0        0.369016   -0.230270    0.371311
     27          1           0        0.041892   -0.729728    1.305456
     28          1           0        0.416502    0.856875    0.610478
 ---------------------------------------------------------------------

 The electronic state is 1-A.
 Alpha  occ. eigenvalues --   -1.46958  -1.36637  -1.19413  -1.07498  -1.01532
 Alpha  occ. eigenvalues --   -0.96532  -0.86779  -0.78719  -0.67180  -0.64778
 Alpha  occ. eigenvalues --   -0.61274  -0.59496  -0.57495  -0.56755  -0.55161
 Alpha  occ. eigenvalues --   -0.53463  -0.51324  -0.50624  -0.49069  -0.48372
 Alpha  occ. eigenvalues --   -0.48326  -0.47749  -0.47349  -0.46847  -0.44569
 Alpha  occ. eigenvalues --   -0.43746  -0.42171  -0.35073  -0.34364
 Alpha virt. eigenvalues --    0.03531   0.04202   0.12017   0.12730   0.13351
 Alpha virt. eigenvalues --    0.13582   0.13721   0.14241   0.14793   0.14885
 Alpha virt. eigenvalues --    0.15501   0.15795   0.15930   0.16324   0.16348

 Mulliken charges:
               1
     1  C   -0.053899
     2  H    0.052724
     3  H    0.055859
     4  C   -0.128111
     5  C   -0.075262
     6  H    0.046749
     7  H    0.046374
     8  H    0.049450
     9  C   -0.150550
    10  H    0.098579
    11  C   -0.078860
    12  H    0.047754
    13  H    0.044801
    14  H    0.044209
    15  C   -0.068711
    16  H    0.043567
    17  H    0.041610
    18  H    0.043955
    19  C   -0.122893
    20  C   -0.076310
    21  H    0.049965
    22  H    0.046279
    23  H    0.045344
    24  C   -0.156862
    25  H    0.101225
    26  C   -0.068711
    27  H    0.058813
    28  H    0.062913
 Sum of Mulliken charges =  -0.00000

 Dipole moment (field-independent basis, Debye):
    X=              0.0870    Y=              0.3355    Z=              0.0725  Tot=              0.3541
 N-N= 3.036140729508D+02 E-N=-4.893918720401D+02  KE=-7.910786595724D+01
 Leave Link  601 at Tue Sep  6 13:42:13 2022, MaxMem=   131072000 cpu:               0.0 elap:               0.0
 (Enter /opt/g16/l9999.exe)
 1\1\GINC-TOTEM2\FOpt\RPM3\ZDO\C10H18\JRAMOS\06-Sep-2022\0\\#p opt pm3\
 \Conformer number 001. Energy MM = 23.712 kcal/mol\\0,1\C,0.7794446543
 ,0.9577993558,0.4448854093\H,0.924155655,1.0361906305,1.5415405025\H,0
 .475643631,1.9699403143,0.1109669598\C,2.0600873516,0.5674751229,-0.22
 64987277\C,2.2300271159,1.0439281957,-1.6233022876\H,2.2595489376,2.14
 12596218,-1.6583623755\H,1.3930528136,0.712262472,-2.253033756\H,3.162
 6291182,0.668340377,-2.0755169619\C,2.9755253218,-0.1663060786,0.42090

 Normal termination of Gaussian 16 at Tue Sep  6 13:42:13 2022.
