 Gaussian 16, Revision A.03,
 Gaussian 16:  ES64L-G16RevA.03 25-Dec-2016

 ----------
 #p opt pm3
 ----------

 -------------------------------------------------
 Conformer number 004. Energy MM = 23.287 kcal/mol
 -------------------------------------------------
 Symbolic Z-matrix:
 Charge =  0 Multiplicity = 1

 SCF Done:  E(RPM3) = -0.214898921607E-01 A.U. after   12 cycles
 SCF Done:  E(RPM3) = -0.256263312197E-01 A.U. after   11 cycles
 SCF Done:  E(RPM3) = -0.264705107308E-01 A.U. after   11 cycles
 SCF Done:  E(RPM3) = -0.271781079579E-01 A.U. after   10 cycles
 SCF Done:  E(RPM3) = -0.273523136343E-01 A.U. after   11 cycles
 SCF Done:  E(RPM3) = -0.276173159555E-01 A.U. after   11 cycles
 SCF Done:  E(RPM3) = -0.278565469513E-01 A.U. after   11 cycles
 SCF Done:  E(RPM3) = -0.279824358479E-01 A.U. after   10 cycles
 SCF Done:  E(RPM3) = -0.280336334262E-01 A.U. after   11 cycles
 SCF Done:  E(RPM3) = -0.280668908604E-01 A.U. after   11 cycles
 SCF Done:  E(RPM3) = -0.281015918966E-01 A.U. after   10 cycles
 SCF Done:  E(RPM3) = -0.281092526760E-01 A.U. after    9 cycles
 SCF Done:  E(RPM3) = -0.281170563212E-01 A.U. after   10 cycles
 SCF Done:  E(RPM3) = -0.281179182519E-01 A.U. after    9 cycles
 SCF Done:  E(RPM3) = -0.281187242616E-01 A.U. after    9 cycles
 SCF Done:  E(RPM3) = -0.281192743883E-01 A.U. after    9 cycles
 SCF Done:  E(RPM3) = -0.281194970439E-01 A.U. after    9 cycles
 SCF Done:  E(RPM3) = -0.281198315274E-01 A.U. after    9 cycles
 SCF Done:  E(RPM3) = -0.281200294877E-01 A.U. after    9 cycles
 SCF Done:  E(RPM3) = -0.281200584234E-01 A.U. after    8 cycles
 Optimization completed.
    -- Stationary point found.

                         Standard orientation:
 ---------------------------------------------------------------------
 Center     Atomic      Atomic             Coordinates (Angstroms)
 Number     Number       Type             X           Y           Z
 ---------------------------------------------------------------------
      1          6           0        0.850229   -0.146957    0.669655
      2          1           0        0.499256    0.327405    1.606970
      3          1           0        1.037983   -1.216995    0.917163
      4          6           0        2.124319    0.498447    0.226225
      5          6           0        2.174637    1.981486    0.331055
      6          1           0        3.114433    2.401320   -0.051414
      7          1           0        2.071944    2.297404    1.378387
      8          1           0        1.351946    2.441514   -0.234626
      9          6           0        3.175583   -0.199604   -0.225319
     10          1           0        4.087588    0.326067   -0.536563
     11          6           0        3.215349   -1.673200   -0.342354
     12          1           0        4.135524   -2.075616    0.100489
     13          1           0        2.360628   -2.153802    0.162841
     14          1           0        3.192481   -1.976218   -1.397629
     15          6           0       -2.949363    1.211259   -0.596883
     16          1           0       -3.521882    1.152953   -1.532204
     17          1           0       -3.528188    1.818482    0.111553
     18          1           0       -2.010422    1.747849   -0.811251
     19          6           0       -2.700571   -0.147943   -0.050165
     20          6           0       -3.914294   -0.880247    0.402395
     21          1           0       -3.687220   -1.886924    0.777505
     22          1           0       -4.418759   -0.331677    1.209585
     23          1           0       -4.631328   -0.987593   -0.422892
     24          6           0       -1.484071   -0.702203    0.038074
     25          1           0       -1.371289   -1.711440    0.456287
     26          6           0       -0.224781   -0.049027   -0.406061
     27          1           0        0.121295   -0.541249   -1.337164
     28          1           0       -0.406217    1.016450   -0.676772
 ---------------------------------------------------------------------

 The electronic state is 1-A.
 Alpha  occ. eigenvalues --   -1.47345  -1.36328  -1.17288  -1.11255  -1.01492
 Alpha  occ. eigenvalues --   -0.94425  -0.86176  -0.80121  -0.67393  -0.64418
 Alpha  occ. eigenvalues --   -0.61364  -0.58805  -0.58518  -0.55876  -0.55098
 Alpha  occ. eigenvalues --   -0.53301  -0.51724  -0.50924  -0.49152  -0.48394
 Alpha  occ. eigenvalues --   -0.48072  -0.47644  -0.47168  -0.47054  -0.44910
 Alpha  occ. eigenvalues --   -0.44010  -0.41691  -0.35126  -0.34349
 Alpha virt. eigenvalues --    0.03549   0.04167   0.12058   0.12682   0.13199
 Alpha virt. eigenvalues --    0.13510   0.13908   0.14254   0.14679   0.14956
 Alpha virt. eigenvalues --    0.15690   0.15698   0.15848   0.16043   0.16336

 Mulliken charges:
               1
     1  C   -0.060603
     2  H    0.057814
     3  H    0.060293
     4  C   -0.128355
     5  C   -0.068100
     6  H    0.041218
     7  H    0.044790
     8  H    0.044743
     9  C   -0.149878
    10  H    0.098365
    11  C   -0.079962
    12  H    0.043098
    13  H    0.048734
    14  H    0.046096
    15  C   -0.076260
    16  H    0.046296
    17  H    0.045412
    18  H    0.049894
    19  C   -0.122813
    20  C   -0.068741
    21  H    0.041542
    22  H    0.044019
    23  H    0.043600
    24  C   -0.156923
    25  H    0.100890
    26  C   -0.067321
    27  H    0.058968
    28  H    0.063185
 Sum of Mulliken charges =   0.00000

 Dipole moment (field-independent basis, Debye):
    X=             -0.2593    Y=              0.1189    Z=             -0.0537  Tot=              0.2903
 N-N= 3.060044600616D+02 E-N=-4.941699252170D+02  KE=-7.910679657908D+01
 Leave Link  601 at Tue Sep  6 13:42:14 2022, MaxMem=   131072000 cpu:               0.0 elap:               0.0
 (Enter /opt/g16/l9999.exe)
 1\1\GINC-TOTEM2\FOpt\RPM3\ZDO\C10H18\JRAMOS\06-Sep-2022\0\\#p opt pm3\
 \Conformer number 004. Energy MM = 23.287 kcal/mol\\0,1\C,0.9416602354
 ,0.4316498763,0.5715798969\H,0.6802152438,1.2731783356,1.2425773538\H,
 1.1307208475,-0.4438568054,1.2343286897\C,2.1846823171,0.7640659294,-0
 .1905751451\C,2.2701239062,2.149313627,-0.7260317318\H,3.181288683,2.3
 203095966,-1.3145023247\H,2.2625595594,2.8805232349,0.0940471932\H,1.4
 105997132,2.3715515835,-1.3743149262\C,3.1811203976,-0.112710393,-0.37

 Normal termination of Gaussian 16 at Tue Sep  6 13:42:14 2022.
