 Gaussian 16, Revision A.03,
 Gaussian 16:  ES64L-G16RevA.03 25-Dec-2016

 ----------
 #p opt pm3
 ----------

 -------------------------------------------------
 Conformer number 008. Energy MM = 23.486 kcal/mol
 -------------------------------------------------
 Symbolic Z-matrix:
 Charge =  0 Multiplicity = 1

 SCF Done:  E(RPM3) = -0.193181853114E-01 A.U. after   12 cycles
 SCF Done:  E(RPM3) = -0.244153962450E-01 A.U. after   11 cycles
 SCF Done:  E(RPM3) = -0.248119769869E-01 A.U. after   11 cycles
 SCF Done:  E(RPM3) = -0.262445957995E-01 A.U. after   11 cycles
 SCF Done:  E(RPM3) = -0.265641770403E-01 A.U. after   11 cycles
 SCF Done:  E(RPM3) = -0.268407574657E-01 A.U. after   11 cycles
 SCF Done:  E(RPM3) = -0.272164515637E-01 A.U. after   12 cycles
 SCF Done:  E(RPM3) = -0.272301982577E-01 A.U. after   11 cycles
 SCF Done:  E(RPM3) = -0.273683654363E-01 A.U. after   11 cycles
 SCF Done:  E(RPM3) = -0.275181691168E-01 A.U. after   10 cycles
 SCF Done:  E(RPM3) = -0.276414983575E-01 A.U. after    9 cycles
 SCF Done:  E(RPM3) = -0.276436084911E-01 A.U. after    9 cycles
 SCF Done:  E(RPM3) = -0.276460851342E-01 A.U. after    9 cycles
 SCF Done:  E(RPM3) = -0.276478275227E-01 A.U. after    9 cycles
 SCF Done:  E(RPM3) = -0.276483325566E-01 A.U. after    9 cycles
 SCF Done:  E(RPM3) = -0.276484785896E-01 A.U. after    8 cycles
 SCF Done:  E(RPM3) = -0.276485411480E-01 A.U. after    8 cycles
 SCF Done:  E(RPM3) = -0.276485918619E-01 A.U. after    8 cycles
 SCF Done:  E(RPM3) = -0.276486266097E-01 A.U. after    8 cycles
 SCF Done:  E(RPM3) = -0.276486405322E-01 A.U. after    8 cycles
 Optimization completed.
    -- Stationary point found.

                         Standard orientation:
 ---------------------------------------------------------------------
 Center     Atomic      Atomic             Coordinates (Angstroms)
 Number     Number       Type             X           Y           Z
 ---------------------------------------------------------------------
      1          6           0        1.004860   -0.669442    0.941393
      2          1           0        0.824516    0.217292    1.589029
      3          1           0        1.385354   -1.465890    1.611266
      4          6           0        2.060803   -0.366682   -0.074565
      5          6           0        2.469381   -1.515947   -0.927550
      6          1           0        3.096651   -2.214721   -0.358090
      7          1           0        1.575345   -2.068249   -1.265743
      8          1           0        3.033398   -1.207611   -1.816719
      9          6           0        2.622644    0.840474   -0.222418
     10          1           0        3.398670    0.988579   -0.984707
     11          6           0        2.281091    2.036497    0.577064
     12          1           0        3.172359    2.433293    1.080581
     13          1           0        1.524763    1.823822    1.350780
     14          1           0        1.881877    2.829336   -0.069400
     15          6           0       -3.088741    1.336570   -0.764639
     16          1           0       -3.859568    1.002068   -1.472181
     17          1           0       -3.587980    1.934720    0.009957
     18          1           0       -2.405515    2.002252   -1.308436
     19          6           0       -2.392257    0.169830   -0.158866
     20          6           0       -3.270123   -0.793802    0.554473
     21          1           0       -2.686688   -1.533417    1.127504
     22          1           0       -3.936069   -0.275080    1.256561
     23          1           0       -3.899257   -1.344024   -0.157867
     24          6           0       -1.065119    0.021559   -0.267378
     25          1           0       -0.465632    0.771640   -0.801476
     26          6           0       -0.299268   -1.121403    0.293691
     27          1           0       -0.072626   -1.839955   -0.528324
     28          1           0       -0.919225   -1.679978    1.030033
 ---------------------------------------------------------------------

 The electronic state is 1-A.
 Alpha  occ. eigenvalues --   -1.47903  -1.35721  -1.17831  -1.10227  -1.01280
 Alpha  occ. eigenvalues --   -0.94897  -0.86876  -0.79492  -0.67049  -0.64123
 Alpha  occ. eigenvalues --   -0.61247  -0.59909  -0.57803  -0.56517  -0.55214
 Alpha  occ. eigenvalues --   -0.53680  -0.51063  -0.50316  -0.48455  -0.48256
 Alpha  occ. eigenvalues --   -0.47918  -0.47611  -0.47258  -0.46945  -0.45744
 Alpha  occ. eigenvalues --   -0.42773  -0.42397  -0.35103  -0.34030
 Alpha virt. eigenvalues --    0.03678   0.04295   0.12391   0.12449   0.13237
 Alpha virt. eigenvalues --    0.13579   0.13946   0.14237   0.14753   0.14953
 Alpha virt. eigenvalues --    0.15499   0.15819   0.15908   0.16093   0.16348

 Mulliken charges:
               1
     1  C   -0.060989
     2  H    0.065766
     3  H    0.053660
     4  C   -0.126688
     5  C   -0.076921
     6  H    0.045102
     7  H    0.050437
     8  H    0.043602
     9  C   -0.151759
    10  H    0.097864
    11  C   -0.079834
    12  H    0.044022
    13  H    0.049721
    14  H    0.044634
    15  C   -0.067336
    16  H    0.042851
    17  H    0.043209
    18  H    0.041808
    19  C   -0.128288
    20  C   -0.074992
    21  H    0.048409
    22  H    0.044709
    23  H    0.045922
    24  C   -0.155982
    25  H    0.108402
    26  C   -0.072176
    27  H    0.064881
    28  H    0.059966
 Sum of Mulliken charges =  -0.00000

 Dipole moment (field-independent basis, Debye):
    X=             -0.2247    Y=             -0.1560    Z=              0.1065  Tot=              0.2935
 N-N= 3.104075261092D+02 E-N=-5.029937789300D+02  KE=-7.912378906774D+01
 Leave Link  601 at Tue Sep  6 13:42:30 2022, MaxMem=   131072000 cpu:               0.0 elap:               0.0
 (Enter /opt/g16/l9999.exe)
 1\1\GINC-TOTEM2\FOpt\RPM3\ZDO\C10H18\JRAMOS\06-Sep-2022\0\\#p opt pm3\
 \Conformer number 008. Energy MM = 23.486 kcal/mol\\0,1\C,0.9571001032
 ,-0.4684837345,-0.9926038902\H,0.8779563314,-1.3087225653,-0.267353253
 8\H,1.2363796176,-0.9260068602,-1.9624031842\C,2.0484728716,0.47055407
 55,-0.5852183896\C,2.3247623123,1.5764245302,-1.5423216538\H,2.8613070
 989,1.1988701735,-2.4230082493\H,1.3742726,2.0154545082,-1.8923698419\
 H,2.927415235,2.3806652848,-1.1020766027\C,2.7496690173,0.3443700767,0

 Normal termination of Gaussian 16 at Tue Sep  6 13:42:30 2022.
