 Gaussian 16, Revision A.03,
 Gaussian 16:  ES64L-G16RevA.03 25-Dec-2016

 ----------
 #p opt pm3
 ----------

 -------------------------------------------------
 Conformer number 005. Energy MM = 23.242 kcal/mol
 -------------------------------------------------
 Symbolic Z-matrix:
 Charge =  0 Multiplicity = 1

 SCF Done:  E(RPM3) = -0.217898605198E-01 A.U. after   12 cycles
 SCF Done:  E(RPM3) = -0.260033728619E-01 A.U. after   11 cycles
 SCF Done:  E(RPM3) = -0.268277829310E-01 A.U. after   11 cycles
 SCF Done:  E(RPM3) = -0.271474653576E-01 A.U. after   11 cycles
 SCF Done:  E(RPM3) = -0.272580408812E-01 A.U. after   10 cycles
 SCF Done:  E(RPM3) = -0.276322502567E-01 A.U. after   11 cycles
 SCF Done:  E(RPM3) = -0.278262186501E-01 A.U. after   12 cycles
 SCF Done:  E(RPM3) = -0.279726384026E-01 A.U. after   11 cycles
 SCF Done:  E(RPM3) = -0.280504119598E-01 A.U. after   10 cycles
 SCF Done:  E(RPM3) = -0.280948286895E-01 A.U. after   11 cycles
 SCF Done:  E(RPM3) = -0.281567692679E-01 A.U. after    9 cycles
 SCF Done:  E(RPM3) = -0.281660365208E-01 A.U. after   10 cycles
 SCF Done:  E(RPM3) = -0.281687581997E-01 A.U. after    9 cycles
 SCF Done:  E(RPM3) = -0.281697982580E-01 A.U. after    9 cycles
 SCF Done:  E(RPM3) = -0.281704174069E-01 A.U. after    9 cycles
 SCF Done:  E(RPM3) = -0.281709375865E-01 A.U. after    9 cycles
 SCF Done:  E(RPM3) = -0.281713775463E-01 A.U. after    9 cycles
 SCF Done:  E(RPM3) = -0.281715310109E-01 A.U. after    8 cycles
 SCF Done:  E(RPM3) = -0.281715637047E-01 A.U. after    8 cycles
 SCF Done:  E(RPM3) = -0.281715725636E-01 A.U. after    8 cycles
 Optimization completed.
    -- Stationary point found.

                         Standard orientation:
 ---------------------------------------------------------------------
 Center     Atomic      Atomic             Coordinates (Angstroms)
 Number     Number       Type             X           Y           Z
 ---------------------------------------------------------------------
      1          6           0       -0.883431   -0.517593    0.676794
      2          1           0       -0.702313    0.355103    1.344438
      3          1           0       -0.859709   -1.412902    1.329480
      4          6           0       -2.231660   -0.396094    0.041224
      5          6           0       -2.822981   -1.657878   -0.479529
      6          1           0       -2.153831   -2.129298   -1.213263
      7          1           0       -2.976978   -2.377150    0.336657
      8          1           0       -3.792781   -1.500157   -0.969833
      9          6           0       -2.892064    0.766679   -0.049382
     10          1           0       -3.880918    0.797645   -0.525000
     11          6           0       -2.385801    2.060249    0.457687
     12          1           0       -1.489196    1.937992    1.088467
     13          1           0       -3.150276    2.570692    1.057536
     14          1           0       -2.118919    2.722653   -0.376553
     15          6           0        3.935510   -0.236634    0.638383
     16          1           0        4.714672   -0.480281   -0.096672
     17          1           0        4.257271    0.666872    1.174212
     18          1           0        3.897844   -1.057822    1.366329
     19          6           0        2.630216   -0.007857   -0.038400
     20          6           0        2.626888    1.073992   -1.057128
     21          1           0        1.613677    1.273626   -1.443170
     22          1           0        3.015534    2.010333   -0.635397
     23          1           0        3.262455    0.803196   -1.910780
     24          6           0        1.553061   -0.743531    0.267305
     25          1           0        1.624162   -1.526473    1.034193
     26          6           0        0.219583   -0.592826   -0.371964
     27          1           0        0.190583    0.310845   -1.022002
     28          1           0        0.052800   -1.455921   -1.048582
 ---------------------------------------------------------------------

 The electronic state is 1-A.
 Alpha  occ. eigenvalues --   -1.47330  -1.36302  -1.17453  -1.11073  -1.01433
 Alpha  occ. eigenvalues --   -0.94486  -0.86190  -0.80100  -0.67510  -0.63998
 Alpha  occ. eigenvalues --   -0.61528  -0.59105  -0.57983  -0.56720  -0.55114
 Alpha  occ. eigenvalues --   -0.53262  -0.51103  -0.50837  -0.48766  -0.48376
 Alpha  occ. eigenvalues --   -0.48316  -0.47567  -0.47209  -0.46968  -0.45918
 Alpha  occ. eigenvalues --   -0.43156  -0.41918  -0.35260  -0.34220
 Alpha virt. eigenvalues --    0.03512   0.04208   0.12064   0.12661   0.13321
 Alpha virt. eigenvalues --    0.13446   0.14003   0.14195   0.14776   0.14925
 Alpha virt. eigenvalues --    0.15502   0.15731   0.15900   0.15948   0.16346

 Mulliken charges:
               1
     1  C   -0.060711
     2  H    0.062760
     3  H    0.055387
     4  C   -0.128516
     5  C   -0.068412
     6  H    0.045410
     7  H    0.044421
     8  H    0.041279
     9  C   -0.149731
    10  H    0.098252
    11  C   -0.080707
    12  H    0.050083
    13  H    0.043206
    14  H    0.045578
    15  C   -0.068766
    16  H    0.043620
    17  H    0.043957
    18  H    0.041564
    19  C   -0.122795
    20  C   -0.076865
    21  H    0.050792
    22  H    0.045323
    23  H    0.046306
    24  C   -0.157494
    25  H    0.101210
    26  C   -0.067146
    27  H    0.063732
    28  H    0.058265
 Sum of Mulliken charges =  -0.00000

 Dipole moment (field-independent basis, Debye):
    X=              0.2316    Y=              0.1304    Z=             -0.0992  Tot=              0.2837
 N-N= 3.069539371140D+02 E-N=-4.960713704042D+02  KE=-7.910884205958D+01
 Leave Link  601 at Tue Sep  6 13:42:21 2022, MaxMem=   131072000 cpu:               0.0 elap:               0.0
 (Enter /opt/g16/l9999.exe)
 1\1\GINC-TOTEM2\FOpt\RPM3\ZDO\C10H18\JRAMOS\06-Sep-2022\0\\#p opt pm3\
 \Conformer number 005. Energy MM = 23.242 kcal/mol\\0,1\C,0.9521901189
 ,1.0805558698,0.1894657234\H,0.8537763277,0.7229044867,1.2394894931\H,
 0.9396568993,2.1875314837,0.2403251087\C,2.2554378199,0.6196263168,-0.
 381080475\C,2.7577698053,1.3801329764,-1.5567652044\H,2.019904679,1.37
 22142051,-2.3715393239\H,2.9409796357,2.4295107947,-1.2875658435\H,3.6
 956337695,0.9716573717,-1.9559452816\C,2.9531746272,-0.4039912338,0.13

 Normal termination of Gaussian 16 at Tue Sep  6 13:42:21 2022.
