 Gaussian 16, Revision A.03,
 Gaussian 16:  EM64L-G16RevA.03 25-Dec-2016

 ---------------------
 #p opt mp2/6-31g(d,p)
 ---------------------

 --------------------------------------------------
 Conformer number 2542. Energy MM = 23.242 kcal/mol
 --------------------------------------------------
 Symbolic Z-matrix:
 Charge =  0 Multiplicity = 1

 SCF Done:  E(RHF) =  -389.155211709     A.U. after   13 cycles
 E2 =    -0.1416939206D+01 EUMP2 =    -0.39057215091467D+03
 SCF Done:  E(RHF) =  -389.157042999     A.U. after   10 cycles
 E2 =    -0.1416584654D+01 EUMP2 =    -0.39057362765282D+03
 SCF Done:  E(RHF) =  -389.157029229     A.U. after   10 cycles
 E2 =    -0.1416745002D+01 EUMP2 =    -0.39057377423117D+03
 SCF Done:  E(RHF) =  -389.156867624     A.U. after   10 cycles
 E2 =    -0.1416946056D+01 EUMP2 =    -0.39057381368025D+03
 SCF Done:  E(RHF) =  -389.156787675     A.U. after    9 cycles
 E2 =    -0.1417044076D+01 EUMP2 =    -0.39057383175143D+03
 SCF Done:  E(RHF) =  -389.156773174     A.U. after    9 cycles
 E2 =    -0.1417073108D+01 EUMP2 =    -0.39057384628184D+03
 SCF Done:  E(RHF) =  -389.156760927     A.U. after    9 cycles
 E2 =    -0.1417091919D+01 EUMP2 =    -0.39057385284557D+03
 SCF Done:  E(RHF) =  -389.156781851     A.U. after    9 cycles
 E2 =    -0.1417078937D+01 EUMP2 =    -0.39057386078759D+03
 SCF Done:  E(RHF) =  -389.156771587     A.U. after    8 cycles
 E2 =    -0.1417092200D+01 EUMP2 =    -0.39057386378706D+03
 SCF Done:  E(RHF) =  -389.156767898     A.U. after    8 cycles
 E2 =    -0.1417096397D+01 EUMP2 =    -0.39057386429466D+03
 SCF Done:  E(RHF) =  -389.156757713     A.U. after    7 cycles
 E2 =    -0.1417106759D+01 EUMP2 =    -0.39057386447240D+03
 SCF Done:  E(RHF) =  -389.156754875     A.U. after    7 cycles
 E2 =    -0.1417109658D+01 EUMP2 =    -0.39057386453255D+03
 SCF Done:  E(RHF) =  -389.156753493     A.U. after    7 cycles
 E2 =    -0.1417111084D+01 EUMP2 =    -0.39057386457653D+03
 Optimization completed.
    -- Stationary point found.

                         Standard orientation:
 ---------------------------------------------------------------------
 Center     Atomic      Atomic             Coordinates (Angstroms)
 Number     Number       Type             X           Y           Z
 ---------------------------------------------------------------------
      1          6           0        0.771614   -0.568573    0.573567
      2          1           0        0.434191    0.245273    1.217241
      3          1           0        0.668095   -1.485510    1.160933
      4          6           0        2.214030   -0.393328    0.170065
      5          6           0        2.980771   -1.666241   -0.064992
      6          1           0        3.988693   -1.465693   -0.426092
      7          1           0        3.055796   -2.249826    0.855130
      8          1           0        2.476562   -2.296852   -0.800641
      9          6           0        2.788610    0.807942   -0.026811
     10          1           0        3.827904    0.823836   -0.343289
     11          6           0        2.147310    2.151891    0.141938
     12          1           0        1.106288    2.078471    0.448316
     13          1           0        2.677200    2.747028    0.888122
     14          1           0        2.179288    2.713957   -0.793351
     15          6           0       -3.939276   -0.466998    0.381613
     16          1           0       -4.693644   -0.171292   -0.351041
     17          1           0       -4.213775    0.006269    1.327063
     18          1           0       -3.994263   -1.546773    0.511307
     19          6           0       -2.568200   -0.032333   -0.057324
     20          6           0       -2.413484    1.449342   -0.261201
     21          1           0       -2.667208    1.983664    0.656927
     22          1           0       -3.100674    1.803950   -1.032693
     23          1           0       -1.404464    1.735291   -0.547306
     24          6           0       -1.584554   -0.932197   -0.245612
     25          1           0       -1.815008   -1.975139   -0.043139
     26          6           0       -0.167065   -0.648286   -0.645617
     27          1           0       -0.088873    0.283860   -1.206530
     28          1           0        0.185347   -1.437823   -1.314705
 ---------------------------------------------------------------------

 The electronic state is 1-A.
 Alpha  occ. eigenvalues --  -11.23020 -11.22460 -11.21868 -11.21730 -11.21712
 Alpha  occ. eigenvalues --  -11.21539 -11.21506 -11.21436 -11.21417 -11.21348
 Alpha  occ. eigenvalues --   -1.10821  -1.08492  -1.01823  -0.98143  -0.93838
 Alpha  occ. eigenvalues --   -0.91939  -0.86963  -0.82855  -0.70494  -0.69519
 Alpha  occ. eigenvalues --   -0.64988  -0.61512  -0.60591  -0.58878  -0.58366
 Alpha  occ. eigenvalues --   -0.56774  -0.55298  -0.54966  -0.53295  -0.52261
 Alpha  occ. eigenvalues --   -0.51859  -0.51173  -0.50832  -0.49581  -0.48519
 Alpha  occ. eigenvalues --   -0.46073  -0.44624  -0.33371  -0.31514
 Alpha virt. eigenvalues --    0.18142   0.19779   0.22152   0.24486   0.25192
 Alpha virt. eigenvalues --    0.27439   0.28535   0.28922   0.30318   0.30811
 Alpha virt. eigenvalues --    0.31477   0.32261   0.33202   0.33794   0.34383

 Mulliken charges:
               1
     1  C   -0.236021
     2  H    0.125346
     3  H    0.115272
     4  C    0.018322
     5  C   -0.341505
     6  H    0.117792
     7  H    0.117845
     8  H    0.114461
     9  C   -0.154256
    10  H    0.115801
    11  C   -0.355567
    12  H    0.116140
    13  H    0.120829
    14  H    0.119588
    15  C   -0.342631
    16  H    0.116356
    17  H    0.115672
    18  H    0.119222
    19  C    0.027221
    20  C   -0.350727
    21  H    0.119352
    22  H    0.121058
    23  H    0.120474
    24  C   -0.163542
    25  H    0.116803
    26  C   -0.235486
    27  H    0.123802
    28  H    0.118380
 Sum of Mulliken charges =  -0.00000

 Dipole moment (field-independent basis, Debye):
    X=             -0.3027    Y=              0.1253    Z=              0.0460  Tot=              0.3308
 Quadrupole moment (field-independent basis, Debye-Ang):
   XX=            -64.3024   YY=            -63.2901   ZZ=            -67.3956
   XY=             -0.7521   XZ=             -1.2367   YZ=             -0.3487

 Normal termination of Gaussian 16 at Fri Sep 17 14:58:02 2021.
