 Gaussian 16, Revision A.03,
 Gaussian 16:  EM64L-G16RevA.03 25-Dec-2016

 ---------------------
 #p opt mp2/6-31g(d,p)
 ---------------------

 --------------------------------------------------
 Conformer number 1471. Energy MM = 23.287 kcal/mol
 --------------------------------------------------
 Symbolic Z-matrix:
 Charge =  0 Multiplicity = 1

 SCF Done:  E(RHF) =  -389.155305412     A.U. after   12 cycles
 E2 =    -0.1416656707D+01 EUMP2 =    -0.39057196211944D+03
 SCF Done:  E(RHF) =  -389.157061789     A.U. after   10 cycles
 E2 =    -0.1416312258D+01 EUMP2 =    -0.39057337404675D+03
 SCF Done:  E(RHF) =  -389.157054717     A.U. after    9 cycles
 E2 =    -0.1416426597D+01 EUMP2 =    -0.39057348131389D+03
 SCF Done:  E(RHF) =  -389.156932804     A.U. after    9 cycles
 E2 =    -0.1416576410D+01 EUMP2 =    -0.39057350921420D+03
 SCF Done:  E(RHF) =  -389.156869199     A.U. after    9 cycles
 E2 =    -0.1416657143D+01 EUMP2 =    -0.39057352634186D+03
 SCF Done:  E(RHF) =  -389.156836677     A.U. after    9 cycles
 E2 =    -0.1416698093D+01 EUMP2 =    -0.39057353477012D+03
 SCF Done:  E(RHF) =  -389.156861163     A.U. after    8 cycles
 E2 =    -0.1416680507D+01 EUMP2 =    -0.39057354166967D+03
 SCF Done:  E(RHF) =  -389.156909525     A.U. after    8 cycles
 E2 =    -0.1416639268D+01 EUMP2 =    -0.39057354879274D+03
 SCF Done:  E(RHF) =  -389.156923148     A.U. after    8 cycles
 E2 =    -0.1416628123D+01 EUMP2 =    -0.39057355127109D+03
 SCF Done:  E(RHF) =  -389.156921498     A.U. after    8 cycles
 E2 =    -0.1416630603D+01 EUMP2 =    -0.39057355210106D+03
 SCF Done:  E(RHF) =  -389.156909152     A.U. after    8 cycles
 E2 =    -0.1416643391D+01 EUMP2 =    -0.39057355254264D+03
 SCF Done:  E(RHF) =  -389.156899946     A.U. after    7 cycles
 E2 =    -0.1416652735D+01 EUMP2 =    -0.39057355268049D+03
 SCF Done:  E(RHF) =  -389.156891796     A.U. after    7 cycles
 E2 =    -0.1416661013D+01 EUMP2 =    -0.39057355280867D+03
 SCF Done:  E(RHF) =  -389.156885255     A.U. after    8 cycles
 E2 =    -0.1416667632D+01 EUMP2 =    -0.39057355288669D+03
 SCF Done:  E(RHF) =  -389.156884800     A.U. after    7 cycles
 E2 =    -0.1416668108D+01 EUMP2 =    -0.39057355290840D+03
 SCF Done:  E(RHF) =  -389.156884239     A.U. after    7 cycles
 E2 =    -0.1416668683D+01 EUMP2 =    -0.39057355292180D+03
 SCF Done:  E(RHF) =  -389.156883450     A.U. after    7 cycles
 E2 =    -0.1416669483D+01 EUMP2 =    -0.39057355293267D+03
 SCF Done:  E(RHF) =  -389.156881526     A.U. after    7 cycles
 E2 =    -0.1416671419D+01 EUMP2 =    -0.39057355294528D+03
 SCF Done:  E(RHF) =  -389.156879219     A.U. after    7 cycles
 E2 =    -0.1416673735D+01 EUMP2 =    -0.39057355295443D+03
 Optimization completed.
    -- Stationary point found.

                         Standard orientation:
 ---------------------------------------------------------------------
 Center     Atomic      Atomic             Coordinates (Angstroms)
 Number     Number       Type             X           Y           Z
 ---------------------------------------------------------------------
      1          6           0        0.735172   -0.049078    0.599761
      2          1           0        0.858057   -0.995635    1.128938
      3          1           0        0.223416    0.624744    1.292500
      4          6           0        2.067657    0.543249    0.215792
      5          6           0        2.104157    2.045368    0.133366
      6          1           0        1.910799    2.492460    1.110906
      7          1           0        1.333939    2.419914   -0.544711
      8          1           0        3.069528    2.403681   -0.221846
      9          6           0        3.153236   -0.192401   -0.087706
     10          1           0        4.055793    0.338639   -0.377519
     11          6           0        3.263931   -1.686752   -0.074232
     12          1           0        2.331810   -2.169073    0.210541
     13          1           0        4.039622   -2.014397    0.620455
     14          1           0        3.542745   -2.060853   -1.061016
     15          6           0       -2.813791    1.324569   -0.266421
     16          1           0       -3.190171    1.794766    0.644552
     17          1           0       -3.545443    1.527244   -1.051718
     18          1           0       -1.881719    1.815019   -0.535192
     19          6           0       -2.660163   -0.156651   -0.058483
     20          6           0       -3.916378   -0.864529    0.368679
     21          1           0       -3.748899   -1.932405    0.500323
     22          1           0       -4.291657   -0.457676    1.310391
     23          1           0       -4.708400   -0.730899   -0.371682
     24          6           0       -1.510453   -0.834981   -0.233753
     25          1           0       -1.524738   -1.902883   -0.030079
     26          6           0       -0.175906   -0.271952   -0.622743
     27          1           0        0.327651   -0.961522   -1.305224
     28          1           0       -0.287106    0.667824   -1.165179
 ---------------------------------------------------------------------

 The electronic state is 1-A.
 Alpha  occ. eigenvalues --  -11.23028 -11.22456 -11.21863 -11.21726 -11.21721
 Alpha  occ. eigenvalues --  -11.21541 -11.21497 -11.21449 -11.21393 -11.21358
 Alpha  occ. eigenvalues --   -1.10803  -1.08495  -1.01828  -0.98138  -0.93839
 Alpha  occ. eigenvalues --   -0.91936  -0.86954  -0.82861  -0.70567  -0.69489
 Alpha  occ. eigenvalues --   -0.64754  -0.61539  -0.60720  -0.58828  -0.58414
 Alpha  occ. eigenvalues --   -0.56814  -0.55405  -0.54979  -0.53298  -0.52217
 Alpha  occ. eigenvalues --   -0.51714  -0.51214  -0.50653  -0.50166  -0.47383
 Alpha  occ. eigenvalues --   -0.46917  -0.44458  -0.33328  -0.31563
 Alpha virt. eigenvalues --    0.18100   0.19932   0.22053   0.24536   0.24955
 Alpha virt. eigenvalues --    0.27424   0.28601   0.28877   0.30353   0.30694
 Alpha virt. eigenvalues --    0.31966   0.32601   0.32969   0.33726   0.34466

 Mulliken charges:
               1
     1  C   -0.235696
     2  H    0.121814
     3  H    0.118365
     4  C    0.017883
     5  C   -0.340845
     6  H    0.118156
     7  H    0.111985
     8  H    0.118112
     9  C   -0.153908
    10  H    0.115552
    11  C   -0.353585
    12  H    0.115581
    13  H    0.120250
    14  H    0.120163
    15  C   -0.348771
    16  H    0.119572
    17  H    0.120971
    18  H    0.118676
    19  C    0.027041
    20  C   -0.342746
    21  H    0.119226
    22  H    0.115688
    23  H    0.116299
    24  C   -0.163245
    25  H    0.116321
    26  C   -0.234395
    27  H    0.123405
    28  H    0.118132
 Sum of Mulliken charges =  -0.00000

 Dipole moment (field-independent basis, Debye):
    X=             -0.3626    Y=              0.1699    Z=              0.0498  Tot=              0.4035
 Quadrupole moment (field-independent basis, Debye-Ang):
   XX=            -63.7582   YY=            -63.7112   ZZ=            -67.3994
   XY=             -1.0617   XZ=             -1.2177   YZ=             -0.3674

 Normal termination of Gaussian 16 at Fri Sep 17 15:32:55 2021.
