 Gaussian 16, Revision A.03,
 Gaussian 16:  EM64L-G16RevA.03 25-Dec-2016

 ---------------------
 #p opt mp2/6-31g(d,p)
 ---------------------

 --------------------------------------------------
 Conformer number 1003. Energy MM = 23.287 kcal/mol
 --------------------------------------------------
 Symbolic Z-matrix:
 Charge =  0 Multiplicity = 1

 SCF Done:  E(RHF) =  -389.155297820     A.U. after   12 cycles
 E2 =    -0.1416662973D+01 EUMP2 =    -0.39057196079360D+03
 SCF Done:  E(RHF) =  -389.157060964     A.U. after   10 cycles
 E2 =    -0.1416312954D+01 EUMP2 =    -0.39057337391846D+03
 SCF Done:  E(RHF) =  -389.157054792     A.U. after    9 cycles
 E2 =    -0.1416426469D+01 EUMP2 =    -0.39057348126081D+03
 SCF Done:  E(RHF) =  -389.156932951     A.U. after    9 cycles
 E2 =    -0.1416576246D+01 EUMP2 =    -0.39057350919709D+03
 SCF Done:  E(RHF) =  -389.156869315     A.U. after    9 cycles
 E2 =    -0.1416657007D+01 EUMP2 =    -0.39057352632226D+03
 SCF Done:  E(RHF) =  -389.156836715     A.U. after    9 cycles
 E2 =    -0.1416698048D+01 EUMP2 =    -0.39057353476312D+03
 SCF Done:  E(RHF) =  -389.156861012     A.U. after    8 cycles
 E2 =    -0.1416680650D+01 EUMP2 =    -0.39057354166267D+03
 SCF Done:  E(RHF) =  -389.156909277     A.U. after    8 cycles
 E2 =    -0.1416639499D+01 EUMP2 =    -0.39057354877604D+03
 SCF Done:  E(RHF) =  -389.156923015     A.U. after    8 cycles
 E2 =    -0.1416628253D+01 EUMP2 =    -0.39057355126731D+03
 SCF Done:  E(RHF) =  -389.156921406     A.U. after    8 cycles
 E2 =    -0.1416630695D+01 EUMP2 =    -0.39057355210085D+03
 SCF Done:  E(RHF) =  -389.156909536     A.U. after    8 cycles
 E2 =    -0.1416643000D+01 EUMP2 =    -0.39057355253566D+03
 SCF Done:  E(RHF) =  -389.156900119     A.U. after    7 cycles
 E2 =    -0.1416652560D+01 EUMP2 =    -0.39057355267858D+03
 SCF Done:  E(RHF) =  -389.156891930     A.U. after    7 cycles
 E2 =    -0.1416660877D+01 EUMP2 =    -0.39057355280676D+03
 SCF Done:  E(RHF) =  -389.156885337     A.U. after    8 cycles
 E2 =    -0.1416667549D+01 EUMP2 =    -0.39057355288620D+03
 SCF Done:  E(RHF) =  -389.156884782     A.U. after    7 cycles
 E2 =    -0.1416668126D+01 EUMP2 =    -0.39057355290861D+03
 SCF Done:  E(RHF) =  -389.156884236     A.U. after    7 cycles
 E2 =    -0.1416668686D+01 EUMP2 =    -0.39057355292205D+03
 SCF Done:  E(RHF) =  -389.156883460     A.U. after    7 cycles
 E2 =    -0.1416669473D+01 EUMP2 =    -0.39057355293258D+03
 SCF Done:  E(RHF) =  -389.156881557     A.U. after    7 cycles
 E2 =    -0.1416671388D+01 EUMP2 =    -0.39057355294498D+03
 SCF Done:  E(RHF) =  -389.156879270     A.U. after    7 cycles
 E2 =    -0.1416673684D+01 EUMP2 =    -0.39057355295420D+03
 Optimization completed.
    -- Stationary point found.

                         Standard orientation:
 ---------------------------------------------------------------------
 Center     Atomic      Atomic             Coordinates (Angstroms)
 Number     Number       Type             X           Y           Z
 ---------------------------------------------------------------------
      1          6           0       -0.735178   -0.049076    0.599771
      2          1           0       -0.858065   -0.995632    1.128948
      3          1           0       -0.223427    0.624747    1.292511
      4          6           0       -2.067663    0.543249    0.215796
      5          6           0       -2.104169    2.045368    0.133381
      6          1           0       -3.069537    2.403679   -0.221838
      7          1           0       -1.333945    2.419922   -0.544686
      8          1           0       -1.910821    2.492453    1.110925
      9          6           0       -3.153236   -0.192403   -0.087716
     10          1           0       -4.055794    0.338634   -0.377531
     11          6           0       -3.263926   -1.686756   -0.074253
     12          1           0       -4.039623   -2.014408    0.620423
     13          1           0       -3.542727   -2.060851   -1.061042
     14          1           0       -2.331806   -2.169074    0.210528
     15          6           0        2.813806    1.324565   -0.266452
     16          1           0        1.881733    1.815020   -0.535209
     17          1           0        3.545441    1.527218   -1.051770
     18          1           0        3.190213    1.794774    0.644503
     19          6           0        2.660166   -0.156650   -0.058483
     20          6           0        3.916379   -0.864529    0.368684
     21          1           0        3.748894   -1.932402    0.500346
     22          1           0        4.291667   -0.457662    1.310387
     23          1           0        4.708398   -0.730916   -0.371683
     24          6           0        1.510451   -0.834976   -0.233733
     25          1           0        1.524731   -1.902874   -0.030037
     26          6           0        0.175905   -0.271949   -0.622729
     27          1           0        0.287106    0.667827   -1.165164
     28          1           0       -0.327647   -0.961519   -1.305212
 ---------------------------------------------------------------------

 The electronic state is 1-A.
 Alpha  occ. eigenvalues --  -11.23028 -11.22456 -11.21863 -11.21726 -11.21721
 Alpha  occ. eigenvalues --  -11.21541 -11.21497 -11.21449 -11.21393 -11.21358
 Alpha  occ. eigenvalues --   -1.10803  -1.08495  -1.01828  -0.98138  -0.93839
 Alpha  occ. eigenvalues --   -0.91936  -0.86954  -0.82861  -0.70567  -0.69489
 Alpha  occ. eigenvalues --   -0.64754  -0.61539  -0.60720  -0.58828  -0.58414
 Alpha  occ. eigenvalues --   -0.56814  -0.55405  -0.54979  -0.53298  -0.52217
 Alpha  occ. eigenvalues --   -0.51714  -0.51214  -0.50653  -0.50166  -0.47383
 Alpha  occ. eigenvalues --   -0.46917  -0.44458  -0.33328  -0.31563
 Alpha virt. eigenvalues --    0.18100   0.19932   0.22054   0.24536   0.24955
 Alpha virt. eigenvalues --    0.27424   0.28601   0.28877   0.30353   0.30694
 Alpha virt. eigenvalues --    0.31966   0.32601   0.32969   0.33726   0.34466

 Mulliken charges:
               1
     1  C   -0.235697
     2  H    0.121814
     3  H    0.118365
     4  C    0.017883
     5  C   -0.340845
     6  H    0.118112
     7  H    0.111985
     8  H    0.118157
     9  C   -0.153908
    10  H    0.115552
    11  C   -0.353585
    12  H    0.120250
    13  H    0.120163
    14  H    0.115581
    15  C   -0.348770
    16  H    0.118676
    17  H    0.120971
    18  H    0.119571
    19  C    0.027040
    20  C   -0.342746
    21  H    0.119226
    22  H    0.115688
    23  H    0.116299
    24  C   -0.163244
    25  H    0.116321
    26  C   -0.234394
    27  H    0.118132
    28  H    0.123405
 Sum of Mulliken charges =  -0.00000

 Dipole moment (field-independent basis, Debye):
    X=              0.3626    Y=              0.1699    Z=              0.0498  Tot=              0.4035
 Quadrupole moment (field-independent basis, Debye-Ang):
   XX=            -63.7582   YY=            -63.7112   ZZ=            -67.3994
   XY=              1.0617   XZ=              1.2177   YZ=             -0.3674

 Normal termination of Gaussian 16 at Fri Sep 17 14:33:50 2021.
