 Gaussian 16, Revision A.03,
 Gaussian 16:  EM64L-G16RevA.03 25-Dec-2016

 ---------------------
 #p opt mp2/6-31g(d,p)
 ---------------------

 -------------------------------------------------
 Conformer number 556. Energy MM = 23.287 kcal/mol
 -------------------------------------------------
 Symbolic Z-matrix:
 Charge =  0 Multiplicity = 1

 SCF Done:  E(RHF) =  -389.155294536     A.U. after   12 cycles
 E2 =    -0.1416665061D+01 EUMP2 =    -0.39057195959666D+03
 SCF Done:  E(RHF) =  -389.157061615     A.U. after   10 cycles
 E2 =    -0.1416312590D+01 EUMP2 =    -0.39057337420449D+03
 SCF Done:  E(RHF) =  -389.157054667     A.U. after    9 cycles
 E2 =    -0.1416426582D+01 EUMP2 =    -0.39057348124938D+03
 SCF Done:  E(RHF) =  -389.156932927     A.U. after    9 cycles
 E2 =    -0.1416576242D+01 EUMP2 =    -0.39057350916978D+03
 SCF Done:  E(RHF) =  -389.156869336     A.U. after    9 cycles
 E2 =    -0.1416656978D+01 EUMP2 =    -0.39057352631378D+03
 SCF Done:  E(RHF) =  -389.156836929     A.U. after    9 cycles
 E2 =    -0.1416697847D+01 EUMP2 =    -0.39057353477603D+03
 SCF Done:  E(RHF) =  -389.156861236     A.U. after    8 cycles
 E2 =    -0.1416680450D+01 EUMP2 =    -0.39057354168606D+03
 SCF Done:  E(RHF) =  -389.156909462     A.U. after    8 cycles
 E2 =    -0.1416639327D+01 EUMP2 =    -0.39057354878981D+03
 SCF Done:  E(RHF) =  -389.156923089     A.U. after    8 cycles
 E2 =    -0.1416628184D+01 EUMP2 =    -0.39057355127313D+03
 SCF Done:  E(RHF) =  -389.156921485     A.U. after    8 cycles
 E2 =    -0.1416630616D+01 EUMP2 =    -0.39057355210090D+03
 SCF Done:  E(RHF) =  -389.156909086     A.U. after    8 cycles
 E2 =    -0.1416643458D+01 EUMP2 =    -0.39057355254393D+03
 SCF Done:  E(RHF) =  -389.156899939     A.U. after    7 cycles
 E2 =    -0.1416652742D+01 EUMP2 =    -0.39057355268073D+03
 SCF Done:  E(RHF) =  -389.156891796     A.U. after    7 cycles
 E2 =    -0.1416661013D+01 EUMP2 =    -0.39057355280908D+03
 SCF Done:  E(RHF) =  -389.156885277     A.U. after    8 cycles
 E2 =    -0.1416667609D+01 EUMP2 =    -0.39057355288695D+03
 SCF Done:  E(RHF) =  -389.156884830     A.U. after    7 cycles
 E2 =    -0.1416668079D+01 EUMP2 =    -0.39057355290856D+03
 SCF Done:  E(RHF) =  -389.156884227     A.U. after    7 cycles
 E2 =    -0.1416668695D+01 EUMP2 =    -0.39057355292190D+03
 SCF Done:  E(RHF) =  -389.156883408     A.U. after    7 cycles
 E2 =    -0.1416669525D+01 EUMP2 =    -0.39057355293283D+03
 SCF Done:  E(RHF) =  -389.156881464     A.U. after    7 cycles
 E2 =    -0.1416671482D+01 EUMP2 =    -0.39057355294542D+03
 SCF Done:  E(RHF) =  -389.156879183     A.U. after    7 cycles
 E2 =    -0.1416673772D+01 EUMP2 =    -0.39057355295459D+03
 Optimization completed.
    -- Stationary point found.

                         Standard orientation:
 ---------------------------------------------------------------------
 Center     Atomic      Atomic             Coordinates (Angstroms)
 Number     Number       Type             X           Y           Z
 ---------------------------------------------------------------------
      1          6           0       -0.735169   -0.049076    0.599758
      2          1           0       -0.858052   -0.995631    1.128939
      3          1           0       -0.223410    0.624747    1.292492
      4          6           0       -2.067654    0.543250    0.215791
      5          6           0       -2.104154    2.045368    0.133360
      6          1           0       -1.333942    2.419911   -0.544726
      7          1           0       -1.910788    2.492464    1.110896
      8          1           0       -3.069528    2.403681   -0.221846
      9          6           0       -3.153234   -0.192401   -0.087703
     10          1           0       -4.055792    0.338637   -0.377515
     11          6           0       -3.263928   -1.686752   -0.074223
     12          1           0       -2.331805   -2.169072    0.210545
     13          1           0       -3.542749   -2.060856   -1.061004
     14          1           0       -4.039614   -2.014395    0.620471
     15          6           0        3.916377   -0.864526    0.368677
     16          1           0        3.748902   -1.932404    0.500315
     17          1           0        4.708400   -0.730890   -0.371682
     18          1           0        4.291654   -0.457677    1.310392
     19          6           0        2.660160   -0.156651   -0.058484
     20          6           0        2.813782    1.324571   -0.266410
     21          1           0        1.881710    1.815018   -0.535186
     22          1           0        3.190151    1.794764    0.644570
     23          1           0        3.545440    1.527256   -1.051699
     24          6           0        1.510453   -0.834985   -0.233760
     25          1           0        1.524741   -1.902888   -0.030094
     26          6           0        0.175905   -0.271956   -0.622749
     27          1           0        0.287103    0.667817   -1.165189
     28          1           0       -0.327654   -0.961529   -1.305225
 ---------------------------------------------------------------------

 The electronic state is 1-A.
 Alpha  occ. eigenvalues --  -11.23028 -11.22456 -11.21863 -11.21726 -11.21721
 Alpha  occ. eigenvalues --  -11.21541 -11.21497 -11.21449 -11.21393 -11.21358
 Alpha  occ. eigenvalues --   -1.10803  -1.08495  -1.01828  -0.98138  -0.93839
 Alpha  occ. eigenvalues --   -0.91936  -0.86954  -0.82861  -0.70567  -0.69489
 Alpha  occ. eigenvalues --   -0.64754  -0.61539  -0.60720  -0.58828  -0.58414
 Alpha  occ. eigenvalues --   -0.56814  -0.55405  -0.54979  -0.53298  -0.52217
 Alpha  occ. eigenvalues --   -0.51714  -0.51214  -0.50653  -0.50166  -0.47383
 Alpha  occ. eigenvalues --   -0.46917  -0.44458  -0.33328  -0.31563
 Alpha virt. eigenvalues --    0.18100   0.19932   0.22053   0.24536   0.24955
 Alpha virt. eigenvalues --    0.27424   0.28601   0.28877   0.30353   0.30694
 Alpha virt. eigenvalues --    0.31966   0.32601   0.32969   0.33726   0.34466

 Mulliken charges:
               1
     1  C   -0.235696
     2  H    0.121814
     3  H    0.118365
     4  C    0.017883
     5  C   -0.340845
     6  H    0.111985
     7  H    0.118156
     8  H    0.118112
     9  C   -0.153908
    10  H    0.115552
    11  C   -0.353585
    12  H    0.115581
    13  H    0.120162
    14  H    0.120250
    15  C   -0.342746
    16  H    0.119226
    17  H    0.116299
    18  H    0.115688
    19  C    0.027041
    20  C   -0.348771
    21  H    0.118676
    22  H    0.119572
    23  H    0.120971
    24  C   -0.163245
    25  H    0.116321
    26  C   -0.234395
    27  H    0.118132
    28  H    0.123405
 Sum of Mulliken charges =  -0.00000

 Dipole moment (field-independent basis, Debye):
    X=              0.3626    Y=              0.1699    Z=              0.0498  Tot=              0.4035
 Quadrupole moment (field-independent basis, Debye-Ang):
   XX=            -63.7582   YY=            -63.7112   ZZ=            -67.3994
   XY=              1.0617   XZ=              1.2177   YZ=             -0.3674

 Normal termination of Gaussian 16 at Fri Sep 17 17:45:55 2021.
