 Gaussian 16, Revision A.03,
 Gaussian 16:  EM64L-G16RevA.03 25-Dec-2016

 ---------------------
 #p opt mp2/6-31g(d,p)
 ---------------------

 --------------------------------------------------
 Conformer number 2733. Energy MM = 23.287 kcal/mol
 --------------------------------------------------
 Symbolic Z-matrix:
 Charge =  0 Multiplicity = 1

 SCF Done:  E(RHF) =  -389.155294539     A.U. after   12 cycles
 E2 =    -0.1416663611D+01 EUMP2 =    -0.39057195814971D+03
 SCF Done:  E(RHF) =  -389.157061986     A.U. after   10 cycles
 E2 =    -0.1416311926D+01 EUMP2 =    -0.39057337391174D+03
 SCF Done:  E(RHF) =  -389.157054895     A.U. after    9 cycles
 E2 =    -0.1416426358D+01 EUMP2 =    -0.39057348125277D+03
 SCF Done:  E(RHF) =  -389.156932785     A.U. after    9 cycles
 E2 =    -0.1416576403D+01 EUMP2 =    -0.39057350918783D+03
 SCF Done:  E(RHF) =  -389.156869221     A.U. after    9 cycles
 E2 =    -0.1416657081D+01 EUMP2 =    -0.39057352630196D+03
 SCF Done:  E(RHF) =  -389.156836628     A.U. after    9 cycles
 E2 =    -0.1416698126D+01 EUMP2 =    -0.39057353475349D+03
 SCF Done:  E(RHF) =  -389.156861075     A.U. after    8 cycles
 E2 =    -0.1416680593D+01 EUMP2 =    -0.39057354166704D+03
 SCF Done:  E(RHF) =  -389.156909447     A.U. after    8 cycles
 E2 =    -0.1416639342D+01 EUMP2 =    -0.39057354878966D+03
 SCF Done:  E(RHF) =  -389.156923058     A.U. after    8 cycles
 E2 =    -0.1416628211D+01 EUMP2 =    -0.39057355126950D+03
 SCF Done:  E(RHF) =  -389.156921429     A.U. after    8 cycles
 E2 =    -0.1416630672D+01 EUMP2 =    -0.39057355210141D+03
 SCF Done:  E(RHF) =  -389.156909028     A.U. after    8 cycles
 E2 =    -0.1416643517D+01 EUMP2 =    -0.39057355254469D+03
 SCF Done:  E(RHF) =  -389.156899866     A.U. after    7 cycles
 E2 =    -0.1416652816D+01 EUMP2 =    -0.39057355268186D+03
 SCF Done:  E(RHF) =  -389.156891736     A.U. after    7 cycles
 E2 =    -0.1416661074D+01 EUMP2 =    -0.39057355281009D+03
 SCF Done:  E(RHF) =  -389.156885270     A.U. after    8 cycles
 E2 =    -0.1416667617D+01 EUMP2 =    -0.39057355288748D+03
 SCF Done:  E(RHF) =  -389.156884830     A.U. after    7 cycles
 E2 =    -0.1416668079D+01 EUMP2 =    -0.39057355290889D+03
 SCF Done:  E(RHF) =  -389.156884226     A.U. after    7 cycles
 E2 =    -0.1416668696D+01 EUMP2 =    -0.39057355292212D+03
 SCF Done:  E(RHF) =  -389.156883401     A.U. after    7 cycles
 E2 =    -0.1416669532D+01 EUMP2 =    -0.39057355293298D+03
 SCF Done:  E(RHF) =  -389.156881452     A.U. after    7 cycles
 E2 =    -0.1416671493D+01 EUMP2 =    -0.39057355294550D+03
 SCF Done:  E(RHF) =  -389.156879177     A.U. after    7 cycles
 E2 =    -0.1416673777D+01 EUMP2 =    -0.39057355295458D+03
 Optimization completed.
    -- Stationary point found.

                         Standard orientation:
 ---------------------------------------------------------------------
 Center     Atomic      Atomic             Coordinates (Angstroms)
 Number     Number       Type             X           Y           Z
 ---------------------------------------------------------------------
      1          6           0        0.735168   -0.049077    0.599756
      2          1           0        0.223409    0.624745    1.292491
      3          1           0        0.858052   -0.995633    1.128935
      4          6           0        2.067653    0.543249    0.215790
      5          6           0        2.104153    2.045368    0.133359
      6          1           0        1.910787    2.492464    1.110895
      7          1           0        3.069525    2.403681   -0.221849
      8          1           0        1.333938    2.419910   -0.544726
      9          6           0        3.153234   -0.192400   -0.087701
     10          1           0        4.055792    0.338639   -0.377513
     11          6           0        3.263931   -1.686751   -0.074220
     12          1           0        3.542753   -2.060856   -1.061000
     13          1           0        4.039616   -2.014392    0.620475
     14          1           0        2.331808   -2.169072    0.210547
     15          6           0       -3.916377   -0.864527    0.368676
     16          1           0       -4.291653   -0.457680    1.310392
     17          1           0       -3.748902   -1.932406    0.500312
     18          1           0       -4.708400   -0.730890   -0.371682
     19          6           0       -2.660160   -0.156651   -0.058483
     20          6           0       -2.813782    1.324572   -0.266405
     21          1           0       -1.881709    1.815018   -0.535182
     22          1           0       -3.545441    1.527258   -1.051692
     23          1           0       -3.190148    1.794762    0.644576
     24          6           0       -1.510453   -0.834985   -0.233763
     25          1           0       -1.524742   -1.902888   -0.030100
     26          6           0       -0.175906   -0.271956   -0.622751
     27          1           0       -0.287105    0.667819   -1.165189
     28          1           0        0.327653   -0.961527   -1.305228
 ---------------------------------------------------------------------

 The electronic state is 1-A.
 Alpha  occ. eigenvalues --  -11.23028 -11.22456 -11.21863 -11.21726 -11.21721
 Alpha  occ. eigenvalues --  -11.21541 -11.21497 -11.21449 -11.21393 -11.21358
 Alpha  occ. eigenvalues --   -1.10803  -1.08495  -1.01828  -0.98138  -0.93839
 Alpha  occ. eigenvalues --   -0.91936  -0.86954  -0.82861  -0.70567  -0.69489
 Alpha  occ. eigenvalues --   -0.64754  -0.61539  -0.60720  -0.58828  -0.58414
 Alpha  occ. eigenvalues --   -0.56814  -0.55405  -0.54979  -0.53298  -0.52217
 Alpha  occ. eigenvalues --   -0.51714  -0.51214  -0.50653  -0.50166  -0.47383
 Alpha  occ. eigenvalues --   -0.46917  -0.44458  -0.33328  -0.31563
 Alpha virt. eigenvalues --    0.18100   0.19932   0.22053   0.24536   0.24955
 Alpha virt. eigenvalues --    0.27424   0.28601   0.28877   0.30353   0.30694
 Alpha virt. eigenvalues --    0.31966   0.32601   0.32969   0.33726   0.34466

 Mulliken charges:
               1
     1  C   -0.235696
     2  H    0.118365
     3  H    0.121814
     4  C    0.017883
     5  C   -0.340845
     6  H    0.118156
     7  H    0.118112
     8  H    0.111985
     9  C   -0.153908
    10  H    0.115552
    11  C   -0.353585
    12  H    0.120162
    13  H    0.120250
    14  H    0.115581
    15  C   -0.342746
    16  H    0.115688
    17  H    0.119226
    18  H    0.116299
    19  C    0.027041
    20  C   -0.348771
    21  H    0.118676
    22  H    0.120971
    23  H    0.119572
    24  C   -0.163245
    25  H    0.116321
    26  C   -0.234395
    27  H    0.118132
    28  H    0.123405
 Sum of Mulliken charges =  -0.00000

 Dipole moment (field-independent basis, Debye):
    X=             -0.3626    Y=              0.1699    Z=              0.0498  Tot=              0.4035
 Quadrupole moment (field-independent basis, Debye-Ang):
   XX=            -63.7582   YY=            -63.7112   ZZ=            -67.3994
   XY=             -1.0617   XZ=             -1.2177   YZ=             -0.3674

 Normal termination of Gaussian 16 at Fri Sep 17 16:38:56 2021.
