 Gaussian 16, Revision A.03,
 Gaussian 16:  EM64L-G16RevA.03 25-Dec-2016

 ---------------------
 #p opt mp2/6-31g(d,p)
 ---------------------

 -------------------------------------------------
 Conformer number 497. Energy MM = 23.242 kcal/mol
 -------------------------------------------------
 Symbolic Z-matrix:
 Charge =  0 Multiplicity = 1

 SCF Done:  E(RHF) =  -389.155209153     A.U. after   13 cycles
 E2 =    -0.1416941979D+01 EUMP2 =    -0.39057215113271D+03
 SCF Done:  E(RHF) =  -389.157043035     A.U. after   10 cycles
 E2 =    -0.1416584768D+01 EUMP2 =    -0.39057362780378D+03
 SCF Done:  E(RHF) =  -389.157029298     A.U. after   10 cycles
 E2 =    -0.1416744846D+01 EUMP2 =    -0.39057377414448D+03
 SCF Done:  E(RHF) =  -389.156867793     A.U. after   10 cycles
 E2 =    -0.1416945827D+01 EUMP2 =    -0.39057381362030D+03
 SCF Done:  E(RHF) =  -389.156787613     A.U. after    9 cycles
 E2 =    -0.1417044110D+01 EUMP2 =    -0.39057383172257D+03
 SCF Done:  E(RHF) =  -389.156773127     A.U. after    9 cycles
 E2 =    -0.1417073135D+01 EUMP2 =    -0.39057384626132D+03
 SCF Done:  E(RHF) =  -389.156760798     A.U. after    9 cycles
 E2 =    -0.1417092025D+01 EUMP2 =    -0.39057385282286D+03
 SCF Done:  E(RHF) =  -389.156781771     A.U. after    9 cycles
 E2 =    -0.1417079000D+01 EUMP2 =    -0.39057386077088D+03
 SCF Done:  E(RHF) =  -389.156771498     A.U. after    8 cycles
 E2 =    -0.1417092283D+01 EUMP2 =    -0.39057386378103D+03
 SCF Done:  E(RHF) =  -389.156767799     A.U. after    8 cycles
 E2 =    -0.1417096493D+01 EUMP2 =    -0.39057386429221D+03
 SCF Done:  E(RHF) =  -389.156757624     A.U. after    7 cycles
 E2 =    -0.1417106847D+01 EUMP2 =    -0.39057386447103D+03
 SCF Done:  E(RHF) =  -389.156754794     A.U. after    7 cycles
 E2 =    -0.1417109737D+01 EUMP2 =    -0.39057386453170D+03
 SCF Done:  E(RHF) =  -389.156753435     A.U. after    7 cycles
 E2 =    -0.1417111141D+01 EUMP2 =    -0.39057386457628D+03
 Optimization completed.
    -- Stationary point found.

                         Standard orientation:
 ---------------------------------------------------------------------
 Center     Atomic      Atomic             Coordinates (Angstroms)
 Number     Number       Type             X           Y           Z
 ---------------------------------------------------------------------
      1          6           0        0.771607   -0.568568    0.573565
      2          1           0        0.668085   -1.485499    1.160940
      3          1           0        0.434182    0.245285    1.217229
      4          6           0        2.214026   -0.393329    0.170068
      5          6           0        2.980764   -1.666245   -0.064981
      6          1           0        3.988689   -1.465701   -0.426074
      7          1           0        2.476558   -2.296856   -0.800632
      8          1           0        3.055780   -2.249827    0.855144
      9          6           0        2.788610    0.807939   -0.026812
     10          1           0        3.827905    0.823828   -0.343285
     11          6           0        2.147314    2.151891    0.141928
     12          1           0        2.179305    2.713956   -0.793362
     13          1           0        1.106288    2.078476    0.448293
     14          1           0        2.677197    2.747027    0.888117
     15          6           0       -2.413469    1.449344   -0.261189
     16          1           0       -1.404448    1.735287   -0.547295
     17          1           0       -3.100659    1.803964   -1.032676
     18          1           0       -2.667186    1.983661    0.656944
     19          6           0       -2.568197   -0.032332   -0.057323
     20          6           0       -3.939276   -0.466989    0.381611
     21          1           0       -3.994270   -1.546765    0.511296
     22          1           0       -4.213771    0.006272    1.327065
     23          1           0       -4.693642   -0.171272   -0.351040
     24          6           0       -1.584557   -0.932200   -0.245621
     25          1           0       -1.815018   -1.975143   -0.043157
     26          6           0       -0.167066   -0.648293   -0.645622
     27          1           0        0.185348   -1.437837   -1.314701
     28          1           0       -0.088872    0.283847   -1.206544
 ---------------------------------------------------------------------

 The electronic state is 1-A.
 Alpha  occ. eigenvalues --  -11.23020 -11.22460 -11.21868 -11.21730 -11.21712
 Alpha  occ. eigenvalues --  -11.21539 -11.21506 -11.21436 -11.21417 -11.21348
 Alpha  occ. eigenvalues --   -1.10821  -1.08492  -1.01823  -0.98143  -0.93838
 Alpha  occ. eigenvalues --   -0.91939  -0.86963  -0.82855  -0.70494  -0.69519
 Alpha  occ. eigenvalues --   -0.64988  -0.61512  -0.60591  -0.58878  -0.58366
 Alpha  occ. eigenvalues --   -0.56774  -0.55298  -0.54966  -0.53295  -0.52261
 Alpha  occ. eigenvalues --   -0.51859  -0.51173  -0.50832  -0.49581  -0.48519
 Alpha  occ. eigenvalues --   -0.46073  -0.44624  -0.33371  -0.31514
 Alpha virt. eigenvalues --    0.18142   0.19779   0.22152   0.24486   0.25192
 Alpha virt. eigenvalues --    0.27439   0.28535   0.28922   0.30318   0.30811
 Alpha virt. eigenvalues --    0.31477   0.32261   0.33202   0.33794   0.34383

 Mulliken charges:
               1
     1  C   -0.236021
     2  H    0.115272
     3  H    0.125346
     4  C    0.018322
     5  C   -0.341505
     6  H    0.117792
     7  H    0.114461
     8  H    0.117844
     9  C   -0.154256
    10  H    0.115801
    11  C   -0.355567
    12  H    0.119588
    13  H    0.116140
    14  H    0.120830
    15  C   -0.350727
    16  H    0.120474
    17  H    0.121058
    18  H    0.119352
    19  C    0.027222
    20  C   -0.342631
    21  H    0.119222
    22  H    0.115672
    23  H    0.116356
    24  C   -0.163543
    25  H    0.116803
    26  C   -0.235486
    27  H    0.118380
    28  H    0.123802
 Sum of Mulliken charges =  -0.00000

 Dipole moment (field-independent basis, Debye):
    X=             -0.3027    Y=              0.1253    Z=              0.0460  Tot=              0.3308
 Quadrupole moment (field-independent basis, Debye-Ang):
   XX=            -64.3024   YY=            -63.2901   ZZ=            -67.3956
   XY=             -0.7521   XZ=             -1.2367   YZ=             -0.3487

 Normal termination of Gaussian 16 at Fri Sep 17 16:41:48 2021.
