 Gaussian 16, Revision A.03,
 Gaussian 16:  EM64L-G16RevA.03 25-Dec-2016

 ---------------------
 #p opt mp2/6-31g(d,p)
 ---------------------

 --------------------------------------------------
 Conformer number 3470. Energy MM = 23.242 kcal/mol
 --------------------------------------------------
 Symbolic Z-matrix:
 Charge =  0 Multiplicity = 1

 SCF Done:  E(RHF) =  -389.155209798     A.U. after   13 cycles
 E2 =    -0.1416941467D+01 EUMP2 =    -0.39057215126427D+03
 SCF Done:  E(RHF) =  -389.157043033     A.U. after   10 cycles
 E2 =    -0.1416584989D+01 EUMP2 =    -0.39057362802144D+03
 SCF Done:  E(RHF) =  -389.157029332     A.U. after   10 cycles
 E2 =    -0.1416744912D+01 EUMP2 =    -0.39057377424467D+03
 SCF Done:  E(RHF) =  -389.156867835     A.U. after   10 cycles
 E2 =    -0.1416945831D+01 EUMP2 =    -0.39057381366650D+03
 SCF Done:  E(RHF) =  -389.156787674     A.U. after    9 cycles
 E2 =    -0.1417044090D+01 EUMP2 =    -0.39057383176465D+03
 SCF Done:  E(RHF) =  -389.156773301     A.U. after    9 cycles
 E2 =    -0.1417072988D+01 EUMP2 =    -0.39057384628929D+03
 SCF Done:  E(RHF) =  -389.156761001     A.U. after    9 cycles
 E2 =    -0.1417091837D+01 EUMP2 =    -0.39057385283805D+03
 SCF Done:  E(RHF) =  -389.156781961     A.U. after    9 cycles
 E2 =    -0.1417078827D+01 EUMP2 =    -0.39057386078794D+03
 SCF Done:  E(RHF) =  -389.156771686     A.U. after    8 cycles
 E2 =    -0.1417092097D+01 EUMP2 =    -0.39057386378288D+03
 SCF Done:  E(RHF) =  -389.156767925     A.U. after    8 cycles
 E2 =    -0.1417096368D+01 EUMP2 =    -0.39057386429239D+03
 SCF Done:  E(RHF) =  -389.156757694     A.U. after    7 cycles
 E2 =    -0.1417106777D+01 EUMP2 =    -0.39057386447164D+03
 SCF Done:  E(RHF) =  -389.156754854     A.U. after    7 cycles
 E2 =    -0.1417109678D+01 EUMP2 =    -0.39057386453225D+03
 SCF Done:  E(RHF) =  -389.156753478     A.U. after    7 cycles
 E2 =    -0.1417111098D+01 EUMP2 =    -0.39057386457649D+03
 Optimization completed.
    -- Stationary point found.

                         Standard orientation:
 ---------------------------------------------------------------------
 Center     Atomic      Atomic             Coordinates (Angstroms)
 Number     Number       Type             X           Y           Z
 ---------------------------------------------------------------------
      1          6           0        0.771612   -0.568571    0.573567
      2          1           0        0.668092   -1.485506    1.160936
      3          1           0        0.434188    0.245277    1.217237
      4          6           0        2.214029   -0.393329    0.170066
      5          6           0        2.980768   -1.666243   -0.064990
      6          1           0        3.988690   -1.465697   -0.426092
      7          1           0        3.055794   -2.249825    0.855134
      8          1           0        2.476557   -2.296855   -0.800637
      9          6           0        2.788611    0.807940   -0.026811
     10          1           0        3.827905    0.823833   -0.343288
     11          6           0        2.147313    2.151891    0.141936
     12          1           0        1.106290    2.078473    0.448313
     13          1           0        2.677203    2.747028    0.888119
     14          1           0        2.179292    2.713956   -0.793354
     15          6           0       -2.413480    1.449342   -0.261200
     16          1           0       -2.667205    1.983665    0.656927
     17          1           0       -3.100667    1.803952   -1.032694
     18          1           0       -1.404459    1.735290   -0.547303
     19          6           0       -2.568199   -0.032333   -0.057323
     20          6           0       -3.939276   -0.466994    0.381613
     21          1           0       -3.994265   -1.546769    0.511307
     22          1           0       -4.213774    0.006273    1.327064
     23          1           0       -4.693643   -0.171287   -0.351040
     24          6           0       -1.584555   -0.932198   -0.245614
     25          1           0       -1.815011   -1.975140   -0.043142
     26          6           0       -0.167066   -0.648289   -0.645618
     27          1           0        0.185346   -1.437829   -1.314703
     28          1           0       -0.088873    0.283855   -1.206535
 ---------------------------------------------------------------------

 The electronic state is 1-A.
 Alpha  occ. eigenvalues --  -11.23020 -11.22460 -11.21868 -11.21730 -11.21712
 Alpha  occ. eigenvalues --  -11.21539 -11.21506 -11.21436 -11.21417 -11.21348
 Alpha  occ. eigenvalues --   -1.10821  -1.08492  -1.01823  -0.98143  -0.93838
 Alpha  occ. eigenvalues --   -0.91939  -0.86963  -0.82855  -0.70494  -0.69519
 Alpha  occ. eigenvalues --   -0.64988  -0.61512  -0.60591  -0.58878  -0.58366
 Alpha  occ. eigenvalues --   -0.56774  -0.55298  -0.54966  -0.53295  -0.52261
 Alpha  occ. eigenvalues --   -0.51859  -0.51173  -0.50832  -0.49581  -0.48519
 Alpha  occ. eigenvalues --   -0.46073  -0.44624  -0.33371  -0.31514
 Alpha virt. eigenvalues --    0.18142   0.19779   0.22152   0.24486   0.25192
 Alpha virt. eigenvalues --    0.27439   0.28535   0.28922   0.30318   0.30811
 Alpha virt. eigenvalues --    0.31477   0.32261   0.33202   0.33794   0.34383

 Mulliken charges:
               1
     1  C   -0.236021
     2  H    0.115272
     3  H    0.125346
     4  C    0.018322
     5  C   -0.341505
     6  H    0.117792
     7  H    0.117845
     8  H    0.114461
     9  C   -0.154256
    10  H    0.115801
    11  C   -0.355567
    12  H    0.116140
    13  H    0.120829
    14  H    0.119588
    15  C   -0.350727
    16  H    0.119352
    17  H    0.121058
    18  H    0.120474
    19  C    0.027221
    20  C   -0.342631
    21  H    0.119222
    22  H    0.115672
    23  H    0.116356
    24  C   -0.163542
    25  H    0.116803
    26  C   -0.235486
    27  H    0.118380
    28  H    0.123802
 Sum of Mulliken charges =  -0.00000

 Dipole moment (field-independent basis, Debye):
    X=             -0.3027    Y=              0.1253    Z=              0.0460  Tot=              0.3308
 Quadrupole moment (field-independent basis, Debye-Ang):
   XX=            -64.3024   YY=            -63.2901   ZZ=            -67.3956
   XY=             -0.7521   XZ=             -1.2367   YZ=             -0.3487

 Normal termination of Gaussian 16 at Fri Sep 17 15:59:16 2021.
