 Gaussian 16, Revision A.03,
 Gaussian 16:  EM64L-G16RevA.03 25-Dec-2016

 ---------------------
 #p opt mp2/6-31g(d,p)
 ---------------------

 --------------------------------------------------
 Conformer number 1622. Energy MM = 23.287 kcal/mol
 --------------------------------------------------
 Symbolic Z-matrix:
 Charge =  0 Multiplicity = 1

 SCF Done:  E(RHF) =  -389.155293579     A.U. after   12 cycles
 E2 =    -0.1416665272D+01 EUMP2 =    -0.39057195885095D+03
 SCF Done:  E(RHF) =  -389.157061813     A.U. after   10 cycles
 E2 =    -0.1416312115D+01 EUMP2 =    -0.39057337392822D+03
 SCF Done:  E(RHF) =  -389.157054800     A.U. after    9 cycles
 E2 =    -0.1416426428D+01 EUMP2 =    -0.39057348122799D+03
 SCF Done:  E(RHF) =  -389.156932818     A.U. after    9 cycles
 E2 =    -0.1416576344D+01 EUMP2 =    -0.39057350916203D+03
 SCF Done:  E(RHF) =  -389.156869332     A.U. after    9 cycles
 E2 =    -0.1416656956D+01 EUMP2 =    -0.39057352628754D+03
 SCF Done:  E(RHF) =  -389.156836797     A.U. after    9 cycles
 E2 =    -0.1416697964D+01 EUMP2 =    -0.39057353476119D+03
 SCF Done:  E(RHF) =  -389.156861150     A.U. after    8 cycles
 E2 =    -0.1416680522D+01 EUMP2 =    -0.39057354167237D+03
 SCF Done:  E(RHF) =  -389.156909440     A.U. after    8 cycles
 E2 =    -0.1416639348D+01 EUMP2 =    -0.39057354878801D+03
 SCF Done:  E(RHF) =  -389.156923053     A.U. after    8 cycles
 E2 =    -0.1416628216D+01 EUMP2 =    -0.39057355126897D+03
 SCF Done:  E(RHF) =  -389.156921452     A.U. after    8 cycles
 E2 =    -0.1416630648D+01 EUMP2 =    -0.39057355210029D+03
 SCF Done:  E(RHF) =  -389.156909059     A.U. after    8 cycles
 E2 =    -0.1416643485D+01 EUMP2 =    -0.39057355254413D+03
 SCF Done:  E(RHF) =  -389.156899915     A.U. after    7 cycles
 E2 =    -0.1416652766D+01 EUMP2 =    -0.39057355268112D+03
 SCF Done:  E(RHF) =  -389.156891785     A.U. after    7 cycles
 E2 =    -0.1416661024D+01 EUMP2 =    -0.39057355280929D+03
 SCF Done:  E(RHF) =  -389.156885268     A.U. after    8 cycles
 E2 =    -0.1416667619D+01 EUMP2 =    -0.39057355288713D+03
 SCF Done:  E(RHF) =  -389.156884819     A.U. after    7 cycles
 E2 =    -0.1416668090D+01 EUMP2 =    -0.39057355290869D+03
 SCF Done:  E(RHF) =  -389.156884229     A.U. after    7 cycles
 E2 =    -0.1416668693D+01 EUMP2 =    -0.39057355292197D+03
 SCF Done:  E(RHF) =  -389.156883418     A.U. after    7 cycles
 E2 =    -0.1416669515D+01 EUMP2 =    -0.39057355293285D+03
 SCF Done:  E(RHF) =  -389.156881476     A.U. after    7 cycles
 E2 =    -0.1416671469D+01 EUMP2 =    -0.39057355294539D+03
 SCF Done:  E(RHF) =  -389.156879187     A.U. after    7 cycles
 E2 =    -0.1416673768D+01 EUMP2 =    -0.39057355295451D+03
 Optimization completed.
    -- Stationary point found.

                         Standard orientation:
 ---------------------------------------------------------------------
 Center     Atomic      Atomic             Coordinates (Angstroms)
 Number     Number       Type             X           Y           Z
 ---------------------------------------------------------------------
      1          6           0        0.735170   -0.049077    0.599759
      2          1           0        0.223412    0.624747    1.292495
      3          1           0        0.858054   -0.995632    1.128940
      4          6           0        2.067655    0.543249    0.215792
      5          6           0        2.104156    2.045368    0.133362
      6          1           0        3.069529    2.403681   -0.221844
      7          1           0        1.910790    2.492463    1.110899
      8          1           0        1.333942    2.419912   -0.544723
      9          6           0        3.153234   -0.192401   -0.087704
     10          1           0        4.055792    0.338637   -0.377517
     11          6           0        3.263928   -1.686753   -0.074226
     12          1           0        2.331805   -2.169072    0.210544
     13          1           0        4.039616   -2.014396    0.620465
     14          1           0        3.542746   -2.060855   -1.061009
     15          6           0       -2.813785    1.324571   -0.266414
     16          1           0       -1.881712    1.815018   -0.535189
     17          1           0       -3.545440    1.527252   -1.051706
     18          1           0       -3.190156    1.794765    0.644563
     19          6           0       -2.660161   -0.156651   -0.058484
     20          6           0       -3.916377   -0.864527    0.368678
     21          1           0       -4.291655   -0.457675    1.310391
     22          1           0       -3.748901   -1.932404    0.500319
     23          1           0       -4.708400   -0.730893   -0.371682
     24          6           0       -1.510453   -0.834984   -0.233757
     25          1           0       -1.524740   -1.902886   -0.030088
     26          6           0       -0.175905   -0.271956   -0.622747
     27          1           0       -0.287104    0.667819   -1.165186
     28          1           0        0.327653   -0.961528   -1.305223
 ---------------------------------------------------------------------

 The electronic state is 1-A.
 Alpha  occ. eigenvalues --  -11.23028 -11.22456 -11.21863 -11.21726 -11.21721
 Alpha  occ. eigenvalues --  -11.21541 -11.21497 -11.21449 -11.21393 -11.21358
 Alpha  occ. eigenvalues --   -1.10803  -1.08495  -1.01828  -0.98138  -0.93839
 Alpha  occ. eigenvalues --   -0.91936  -0.86954  -0.82861  -0.70567  -0.69489
 Alpha  occ. eigenvalues --   -0.64754  -0.61539  -0.60720  -0.58828  -0.58414
 Alpha  occ. eigenvalues --   -0.56814  -0.55405  -0.54979  -0.53298  -0.52217
 Alpha  occ. eigenvalues --   -0.51714  -0.51214  -0.50653  -0.50166  -0.47383
 Alpha  occ. eigenvalues --   -0.46917  -0.44458  -0.33328  -0.31563
 Alpha virt. eigenvalues --    0.18100   0.19932   0.22053   0.24536   0.24955
 Alpha virt. eigenvalues --    0.27424   0.28601   0.28877   0.30353   0.30694
 Alpha virt. eigenvalues --    0.31966   0.32601   0.32969   0.33726   0.34466

 Mulliken charges:
               1
     1  C   -0.235696
     2  H    0.118365
     3  H    0.121814
     4  C    0.017883
     5  C   -0.340845
     6  H    0.118112
     7  H    0.118156
     8  H    0.111985
     9  C   -0.153908
    10  H    0.115552
    11  C   -0.353585
    12  H    0.115581
    13  H    0.120250
    14  H    0.120162
    15  C   -0.348771
    16  H    0.118676
    17  H    0.120971
    18  H    0.119572
    19  C    0.027041
    20  C   -0.342746
    21  H    0.115688
    22  H    0.119226
    23  H    0.116299
    24  C   -0.163245
    25  H    0.116321
    26  C   -0.234395
    27  H    0.118132
    28  H    0.123405
 Sum of Mulliken charges =  -0.00000

 Dipole moment (field-independent basis, Debye):
    X=             -0.3626    Y=              0.1699    Z=              0.0498  Tot=              0.4035
 Quadrupole moment (field-independent basis, Debye-Ang):
   XX=            -63.7582   YY=            -63.7112   ZZ=            -67.3994
   XY=             -1.0617   XZ=             -1.2177   YZ=             -0.3674

 Normal termination of Gaussian 16 at Fri Sep 17 15:34:14 2021.
