 Gaussian 16, Revision A.03,
 Gaussian 16:  EM64L-G16RevA.03 25-Dec-2016

 ---------------------
 #p opt mp2/6-31g(d,p)
 ---------------------

 --------------------------------------------------
 Conformer number 3559. Energy MM = 23.287 kcal/mol
 --------------------------------------------------
 Symbolic Z-matrix:
 Charge =  0 Multiplicity = 1

 SCF Done:  E(RHF) =  -389.155302273     A.U. after   12 cycles
 E2 =    -0.1416658105D+01 EUMP2 =    -0.39057196037797D+03
 SCF Done:  E(RHF) =  -389.157061741     A.U. after   10 cycles
 E2 =    -0.1416312336D+01 EUMP2 =    -0.39057337407707D+03
 SCF Done:  E(RHF) =  -389.157054621     A.U. after    9 cycles
 E2 =    -0.1416426679D+01 EUMP2 =    -0.39057348130016D+03
 SCF Done:  E(RHF) =  -389.156932786     A.U. after    9 cycles
 E2 =    -0.1416576416D+01 EUMP2 =    -0.39057350920259D+03
 SCF Done:  E(RHF) =  -389.156869296     A.U. after    9 cycles
 E2 =    -0.1416657023D+01 EUMP2 =    -0.39057352631984D+03
 SCF Done:  E(RHF) =  -389.156836793     A.U. after    9 cycles
 E2 =    -0.1416697974D+01 EUMP2 =    -0.39057353476661D+03
 SCF Done:  E(RHF) =  -389.156861299     A.U. after    8 cycles
 E2 =    -0.1416680382D+01 EUMP2 =    -0.39057354168098D+03
 SCF Done:  E(RHF) =  -389.156909579     A.U. after    8 cycles
 E2 =    -0.1416639223D+01 EUMP2 =    -0.39057354880284D+03
 SCF Done:  E(RHF) =  -389.156923097     A.U. after    8 cycles
 E2 =    -0.1416628178D+01 EUMP2 =    -0.39057355127454D+03
 SCF Done:  E(RHF) =  -389.156921414     A.U. after    8 cycles
 E2 =    -0.1416630689D+01 EUMP2 =    -0.39057355210380D+03
 SCF Done:  E(RHF) =  -389.156909113     A.U. after    8 cycles
 E2 =    -0.1416643430D+01 EUMP2 =    -0.39057355254280D+03
 SCF Done:  E(RHF) =  -389.156899949     A.U. after    7 cycles
 E2 =    -0.1416652731D+01 EUMP2 =    -0.39057355268021D+03
 SCF Done:  E(RHF) =  -389.156891788     A.U. after    7 cycles
 E2 =    -0.1416661021D+01 EUMP2 =    -0.39057355280885D+03
 SCF Done:  E(RHF) =  -389.156885274     A.U. after    8 cycles
 E2 =    -0.1416667613D+01 EUMP2 =    -0.39057355288679D+03
 SCF Done:  E(RHF) =  -389.156884816     A.U. after    7 cycles
 E2 =    -0.1416668092D+01 EUMP2 =    -0.39057355290840D+03
 SCF Done:  E(RHF) =  -389.156884238     A.U. after    7 cycles
 E2 =    -0.1416668683D+01 EUMP2 =    -0.39057355292178D+03
 SCF Done:  E(RHF) =  -389.156883434     A.U. after    7 cycles
 E2 =    -0.1416669499D+01 EUMP2 =    -0.39057355293272D+03
 SCF Done:  E(RHF) =  -389.156881503     A.U. after    7 cycles
 E2 =    -0.1416671443D+01 EUMP2 =    -0.39057355294533D+03
 SCF Done:  E(RHF) =  -389.156879203     A.U. after    7 cycles
 E2 =    -0.1416673752D+01 EUMP2 =    -0.39057355295450D+03
 Optimization completed.
    -- Stationary point found.

                         Standard orientation:
 ---------------------------------------------------------------------
 Center     Atomic      Atomic             Coordinates (Angstroms)
 Number     Number       Type             X           Y           Z
 ---------------------------------------------------------------------
      1          6           0        0.735171   -0.049077    0.599760
      2          1           0        0.858055   -0.995632    1.128940
      3          1           0        0.223414    0.624747    1.292496
      4          6           0        2.067656    0.543249    0.215792
      5          6           0        2.104157    2.045368    0.133364
      6          1           0        1.910793    2.492462    1.110901
      7          1           0        3.069530    2.403681   -0.221844
      8          1           0        1.333942    2.419913   -0.544719
      9          6           0        3.153234   -0.192401   -0.087705
     10          1           0        4.055792    0.338637   -0.377518
     11          6           0        3.263928   -1.686753   -0.074229
     12          1           0        4.039617   -2.014397    0.620461
     13          1           0        3.542745   -2.060855   -1.061012
     14          1           0        2.331806   -2.169073    0.210542
     15          6           0       -3.916378   -0.864527    0.368678
     16          1           0       -4.291656   -0.457675    1.310391
     17          1           0       -4.708400   -0.730895   -0.371682
     18          1           0       -3.748900   -1.932404    0.500321
     19          6           0       -2.660161   -0.156651   -0.058484
     20          6           0       -2.813787    1.324570   -0.266418
     21          1           0       -1.881715    1.815018   -0.535192
     22          1           0       -3.545442    1.527248   -1.051711
     23          1           0       -3.190161    1.794766    0.644558
     24          6           0       -1.510453   -0.834983   -0.233755
     25          1           0       -1.524739   -1.902885   -0.030083
     26          6           0       -0.175905   -0.271955   -0.622745
     27          1           0        0.327652   -0.961526   -1.305223
     28          1           0       -0.287104    0.667820   -1.165183
 ---------------------------------------------------------------------

 The electronic state is 1-A.
 Alpha  occ. eigenvalues --  -11.23028 -11.22456 -11.21863 -11.21726 -11.21721
 Alpha  occ. eigenvalues --  -11.21541 -11.21497 -11.21449 -11.21393 -11.21358
 Alpha  occ. eigenvalues --   -1.10803  -1.08495  -1.01828  -0.98138  -0.93839
 Alpha  occ. eigenvalues --   -0.91936  -0.86954  -0.82861  -0.70567  -0.69489
 Alpha  occ. eigenvalues --   -0.64754  -0.61539  -0.60720  -0.58828  -0.58414
 Alpha  occ. eigenvalues --   -0.56814  -0.55405  -0.54979  -0.53298  -0.52217
 Alpha  occ. eigenvalues --   -0.51714  -0.51214  -0.50653  -0.50166  -0.47383
 Alpha  occ. eigenvalues --   -0.46917  -0.44458  -0.33328  -0.31563
 Alpha virt. eigenvalues --    0.18100   0.19932   0.22053   0.24536   0.24955
 Alpha virt. eigenvalues --    0.27424   0.28601   0.28877   0.30353   0.30694
 Alpha virt. eigenvalues --    0.31966   0.32601   0.32969   0.33726   0.34466

 Mulliken charges:
               1
     1  C   -0.235696
     2  H    0.121814
     3  H    0.118365
     4  C    0.017883
     5  C   -0.340845
     6  H    0.118156
     7  H    0.118112
     8  H    0.111985
     9  C   -0.153908
    10  H    0.115552
    11  C   -0.353585
    12  H    0.120250
    13  H    0.120163
    14  H    0.115581
    15  C   -0.342746
    16  H    0.115688
    17  H    0.116299
    18  H    0.119226
    19  C    0.027041
    20  C   -0.348771
    21  H    0.118676
    22  H    0.120971
    23  H    0.119572
    24  C   -0.163245
    25  H    0.116321
    26  C   -0.234395
    27  H    0.123405
    28  H    0.118132
 Sum of Mulliken charges =  -0.00000

 Dipole moment (field-independent basis, Debye):
    X=             -0.3626    Y=              0.1699    Z=              0.0498  Tot=              0.4035
 Quadrupole moment (field-independent basis, Debye-Ang):
   XX=            -63.7582   YY=            -63.7112   ZZ=            -67.3994
   XY=             -1.0617   XZ=             -1.2177   YZ=             -0.3674

 Normal termination of Gaussian 16 at Fri Sep 17 17:08:54 2021.
