 Gaussian 16, Revision A.03,
 Gaussian 16:  EM64L-G16RevA.03 25-Dec-2016

 ---------------------
 #p opt mp2/6-31g(d,p)
 ---------------------

 --------------------------------------------------
 Conformer number 3875. Energy MM = 23.287 kcal/mol
 --------------------------------------------------
 Symbolic Z-matrix:
 Charge =  0 Multiplicity = 1

 SCF Done:  E(RHF) =  -389.155300038     A.U. after   12 cycles
 E2 =    -0.1416658038D+01 EUMP2 =    -0.39057195807571D+03
 SCF Done:  E(RHF) =  -389.157062371     A.U. after   10 cycles
 E2 =    -0.1416311614D+01 EUMP2 =    -0.39057337398507D+03
 SCF Done:  E(RHF) =  -389.157054559     A.U. after    9 cycles
 E2 =    -0.1416426700D+01 EUMP2 =    -0.39057348125881D+03
 SCF Done:  E(RHF) =  -389.156932660     A.U. after    9 cycles
 E2 =    -0.1416576514D+01 EUMP2 =    -0.39057350917320D+03
 SCF Done:  E(RHF) =  -389.156869318     A.U. after    9 cycles
 E2 =    -0.1416656960D+01 EUMP2 =    -0.39057352627741D+03
 SCF Done:  E(RHF) =  -389.156836865     A.U. after    9 cycles
 E2 =    -0.1416697894D+01 EUMP2 =    -0.39057353475869D+03
 SCF Done:  E(RHF) =  -389.156861305     A.U. after    8 cycles
 E2 =    -0.1416680363D+01 EUMP2 =    -0.39057354166803D+03
 SCF Done:  E(RHF) =  -389.156909509     A.U. after    8 cycles
 E2 =    -0.1416639276D+01 EUMP2 =    -0.39057354878482D+03
 SCF Done:  E(RHF) =  -389.156922976     A.U. after    8 cycles
 E2 =    -0.1416628290D+01 EUMP2 =    -0.39057355126579D+03
 SCF Done:  E(RHF) =  -389.156921325     A.U. after    8 cycles
 E2 =    -0.1416630775D+01 EUMP2 =    -0.39057355210074D+03
 SCF Done:  E(RHF) =  -389.156908893     A.U. after    8 cycles
 E2 =    -0.1416643653D+01 EUMP2 =    -0.39057355254639D+03
 SCF Done:  E(RHF) =  -389.156899781     A.U. after    7 cycles
 E2 =    -0.1416652902D+01 EUMP2 =    -0.39057355268309D+03
 SCF Done:  E(RHF) =  -389.156891691     A.U. after    7 cycles
 E2 =    -0.1416661120D+01 EUMP2 =    -0.39057355281098D+03
 SCF Done:  E(RHF) =  -389.156885250     A.U. after    8 cycles
 E2 =    -0.1416667638D+01 EUMP2 =    -0.39057355288796D+03
 SCF Done:  E(RHF) =  -389.156884817     A.U. after    7 cycles
 E2 =    -0.1416668092D+01 EUMP2 =    -0.39057355290919D+03
 SCF Done:  E(RHF) =  -389.156884229     A.U. after    7 cycles
 E2 =    -0.1416668694D+01 EUMP2 =    -0.39057355292229D+03
 SCF Done:  E(RHF) =  -389.156883409     A.U. after    7 cycles
 E2 =    -0.1416669524D+01 EUMP2 =    -0.39057355293305D+03
 SCF Done:  E(RHF) =  -389.156881458     A.U. after    7 cycles
 E2 =    -0.1416671488D+01 EUMP2 =    -0.39057355294549D+03
 SCF Done:  E(RHF) =  -389.156879169     A.U. after    7 cycles
 E2 =    -0.1416673785D+01 EUMP2 =    -0.39057355295455D+03
 Optimization completed.
    -- Stationary point found.

                         Standard orientation:
 ---------------------------------------------------------------------
 Center     Atomic      Atomic             Coordinates (Angstroms)
 Number     Number       Type             X           Y           Z
 ---------------------------------------------------------------------
      1          6           0       -0.735169   -0.049076    0.599759
      2          1           0       -0.858052   -0.995630    1.128941
      3          1           0       -0.223410    0.624749    1.292493
      4          6           0       -2.067654    0.543250    0.215792
      5          6           0       -2.104156    2.045368    0.133361
      6          1           0       -1.910785    2.492464    1.110896
      7          1           0       -1.333946    2.419912   -0.544729
      8          1           0       -3.069531    2.403680   -0.221841
      9          6           0       -3.153233   -0.192402   -0.087703
     10          1           0       -4.055792    0.338636   -0.377516
     11          6           0       -3.263926   -1.686753   -0.074225
     12          1           0       -4.039613   -2.014397    0.620467
     13          1           0       -3.542743   -2.060857   -1.061007
     14          1           0       -2.331803   -2.169072    0.210545
     15          6           0        3.916377   -0.864526    0.368678
     16          1           0        4.291654   -0.457675    1.310392
     17          1           0        3.748902   -1.932403    0.500318
     18          1           0        4.708399   -0.730891   -0.371682
     19          6           0        2.660160   -0.156651   -0.058484
     20          6           0        2.813783    1.324571   -0.266412
     21          1           0        1.881710    1.815017   -0.535190
     22          1           0        3.190151    1.794765    0.644566
     23          1           0        3.545440    1.527254   -1.051702
     24          6           0        1.510453   -0.834984   -0.233759
     25          1           0        1.524741   -1.902887   -0.030091
     26          6           0        0.175905   -0.271956   -0.622748
     27          1           0        0.287103    0.667817   -1.165188
     28          1           0       -0.327654   -0.961529   -1.305223
 ---------------------------------------------------------------------

 The electronic state is 1-A.
 Alpha  occ. eigenvalues --  -11.23028 -11.22456 -11.21863 -11.21726 -11.21721
 Alpha  occ. eigenvalues --  -11.21541 -11.21497 -11.21449 -11.21393 -11.21358
 Alpha  occ. eigenvalues --   -1.10803  -1.08495  -1.01828  -0.98138  -0.93839
 Alpha  occ. eigenvalues --   -0.91936  -0.86954  -0.82861  -0.70567  -0.69489
 Alpha  occ. eigenvalues --   -0.64754  -0.61539  -0.60720  -0.58828  -0.58414
 Alpha  occ. eigenvalues --   -0.56814  -0.55405  -0.54979  -0.53298  -0.52217
 Alpha  occ. eigenvalues --   -0.51714  -0.51214  -0.50653  -0.50166  -0.47383
 Alpha  occ. eigenvalues --   -0.46917  -0.44458  -0.33328  -0.31563
 Alpha virt. eigenvalues --    0.18100   0.19932   0.22053   0.24536   0.24955
 Alpha virt. eigenvalues --    0.27424   0.28601   0.28877   0.30353   0.30694
 Alpha virt. eigenvalues --    0.31966   0.32601   0.32969   0.33726   0.34466

 Mulliken charges:
               1
     1  C   -0.235696
     2  H    0.121814
     3  H    0.118365
     4  C    0.017883
     5  C   -0.340845
     6  H    0.118156
     7  H    0.111985
     8  H    0.118112
     9  C   -0.153908
    10  H    0.115552
    11  C   -0.353585
    12  H    0.120250
    13  H    0.120162
    14  H    0.115581
    15  C   -0.342746
    16  H    0.115688
    17  H    0.119226
    18  H    0.116299
    19  C    0.027041
    20  C   -0.348771
    21  H    0.118676
    22  H    0.119572
    23  H    0.120971
    24  C   -0.163245
    25  H    0.116321
    26  C   -0.234395
    27  H    0.118132
    28  H    0.123405
 Sum of Mulliken charges =  -0.00000

 Dipole moment (field-independent basis, Debye):
    X=              0.3626    Y=              0.1699    Z=              0.0498  Tot=              0.4035
 Quadrupole moment (field-independent basis, Debye-Ang):
   XX=            -63.7582   YY=            -63.7112   ZZ=            -67.3994
   XY=              1.0617   XZ=              1.2177   YZ=             -0.3674

 Normal termination of Gaussian 16 at Fri Sep 17 17:13:15 2021.
