 Gaussian 16, Revision A.03,
 Gaussian 16:  EM64L-G16RevA.03 25-Dec-2016

 ---------------------
 #p opt mp2/6-31g(d,p)
 ---------------------

 --------------------------------------------------
 Conformer number 1378. Energy MM = 23.242 kcal/mol
 --------------------------------------------------
 Symbolic Z-matrix:
 Charge =  0 Multiplicity = 1

 SCF Done:  E(RHF) =  -389.155204481     A.U. after   13 cycles
 E2 =    -0.1416946609D+01 EUMP2 =    -0.39057215108929D+03
 SCF Done:  E(RHF) =  -389.157042386     A.U. after   10 cycles
 E2 =    -0.1416585412D+01 EUMP2 =    -0.39057362779870D+03
 SCF Done:  E(RHF) =  -389.157029438     A.U. after   10 cycles
 E2 =    -0.1416744731D+01 EUMP2 =    -0.39057377416977D+03
 SCF Done:  E(RHF) =  -389.156867959     A.U. after   10 cycles
 E2 =    -0.1416945692D+01 EUMP2 =    -0.39057381365088D+03
 SCF Done:  E(RHF) =  -389.156787719     A.U. after    9 cycles
 E2 =    -0.1417044039D+01 EUMP2 =    -0.39057383175719D+03
 SCF Done:  E(RHF) =  -389.156773227     A.U. after    9 cycles
 E2 =    -0.1417073062D+01 EUMP2 =    -0.39057384628943D+03
 SCF Done:  E(RHF) =  -389.156760903     A.U. after    9 cycles
 E2 =    -0.1417091947D+01 EUMP2 =    -0.39057385285009D+03
 SCF Done:  E(RHF) =  -389.156781841     A.U. after    9 cycles
 E2 =    -0.1417078936D+01 EUMP2 =    -0.39057386077743D+03
 SCF Done:  E(RHF) =  -389.156771664     A.U. after    8 cycles
 E2 =    -0.1417092119D+01 EUMP2 =    -0.39057386378307D+03
 SCF Done:  E(RHF) =  -389.156767955     A.U. after    8 cycles
 E2 =    -0.1417096338D+01 EUMP2 =    -0.39057386429298D+03
 SCF Done:  E(RHF) =  -389.156757720     A.U. after    7 cycles
 E2 =    -0.1417106752D+01 EUMP2 =    -0.39057386447206D+03
 SCF Done:  E(RHF) =  -389.156754869     A.U. after    7 cycles
 E2 =    -0.1417109663D+01 EUMP2 =    -0.39057386453241D+03
 SCF Done:  E(RHF) =  -389.156753483     A.U. after    7 cycles
 E2 =    -0.1417111093D+01 EUMP2 =    -0.39057386457655D+03
 Optimization completed.
    -- Stationary point found.

                         Standard orientation:
 ---------------------------------------------------------------------
 Center     Atomic      Atomic             Coordinates (Angstroms)
 Number     Number       Type             X           Y           Z
 ---------------------------------------------------------------------
      1          6           0       -0.771613   -0.568572    0.573567
      2          1           0       -0.434190    0.245275    1.217239
      3          1           0       -0.668094   -1.485508    1.160934
      4          6           0       -2.214030   -0.393328    0.170066
      5          6           0       -2.980770   -1.666242   -0.064990
      6          1           0       -3.988692   -1.465695   -0.426092
      7          1           0       -3.055796   -2.249824    0.855133
      8          1           0       -2.476559   -2.296854   -0.800637
      9          6           0       -2.788610    0.807941   -0.026812
     10          1           0       -3.827905    0.823835   -0.343289
     11          6           0       -2.147311    2.151891    0.141936
     12          1           0       -2.677201    2.747029    0.888118
     13          1           0       -1.106289    2.078471    0.448315
     14          1           0       -2.179288    2.713955   -0.793354
     15          6           0        3.939276   -0.466997    0.381612
     16          1           0        4.693644   -0.171290   -0.351042
     17          1           0        3.994263   -1.546773    0.511305
     18          1           0        4.213775    0.006269    1.327063
     19          6           0        2.568199   -0.032333   -0.057323
     20          6           0        2.413483    1.449342   -0.261199
     21          1           0        2.667207    1.983663    0.656930
     22          1           0        3.100672    1.803953   -1.032690
     23          1           0        1.404463    1.735292   -0.547303
     24          6           0        1.584554   -0.932197   -0.245614
     25          1           0        1.815009   -1.975139   -0.043142
     26          6           0        0.167065   -0.648286   -0.645618
     27          1           0       -0.185347   -1.437825   -1.314705
     28          1           0        0.088872    0.283859   -1.206532
 ---------------------------------------------------------------------

 The electronic state is 1-A.
 Alpha  occ. eigenvalues --  -11.23020 -11.22460 -11.21868 -11.21730 -11.21712
 Alpha  occ. eigenvalues --  -11.21539 -11.21506 -11.21436 -11.21417 -11.21348
 Alpha  occ. eigenvalues --   -1.10821  -1.08492  -1.01823  -0.98143  -0.93838
 Alpha  occ. eigenvalues --   -0.91939  -0.86963  -0.82855  -0.70494  -0.69519
 Alpha  occ. eigenvalues --   -0.64988  -0.61512  -0.60591  -0.58878  -0.58366
 Alpha  occ. eigenvalues --   -0.56774  -0.55298  -0.54966  -0.53295  -0.52261
 Alpha  occ. eigenvalues --   -0.51859  -0.51173  -0.50832  -0.49581  -0.48519
 Alpha  occ. eigenvalues --   -0.46073  -0.44624  -0.33371  -0.31514
 Alpha virt. eigenvalues --    0.18142   0.19779   0.22152   0.24486   0.25192
 Alpha virt. eigenvalues --    0.27439   0.28535   0.28922   0.30318   0.30811
 Alpha virt. eigenvalues --    0.31477   0.32261   0.33202   0.33794   0.34383

 Mulliken charges:
               1
     1  C   -0.236021
     2  H    0.125346
     3  H    0.115272
     4  C    0.018322
     5  C   -0.341505
     6  H    0.117792
     7  H    0.117845
     8  H    0.114461
     9  C   -0.154256
    10  H    0.115801
    11  C   -0.355567
    12  H    0.120829
    13  H    0.116140
    14  H    0.119588
    15  C   -0.342631
    16  H    0.116356
    17  H    0.119222
    18  H    0.115672
    19  C    0.027221
    20  C   -0.350727
    21  H    0.119352
    22  H    0.121058
    23  H    0.120474
    24  C   -0.163542
    25  H    0.116803
    26  C   -0.235486
    27  H    0.118380
    28  H    0.123802
 Sum of Mulliken charges =  -0.00000

 Dipole moment (field-independent basis, Debye):
    X=              0.3027    Y=              0.1253    Z=              0.0460  Tot=              0.3308
 Quadrupole moment (field-independent basis, Debye-Ang):
   XX=            -64.3024   YY=            -63.2901   ZZ=            -67.3956
   XY=              0.7521   XZ=              1.2367   YZ=             -0.3487

 Normal termination of Gaussian 16 at Fri Sep 17 14:22:29 2021.
