 Gaussian 16, Revision A.03,
 Gaussian 16:  EM64L-G16RevA.03 25-Dec-2016

 ---------------------
 #p opt mp2/6-31g(d,p)
 ---------------------

 --------------------------------------------------
 Conformer number 3975. Energy MM = 23.287 kcal/mol
 --------------------------------------------------
 Symbolic Z-matrix:
 Charge =  0 Multiplicity = 1

 SCF Done:  E(RHF) =  -389.155309061     A.U. after   12 cycles
 E2 =    -0.1416651695D+01 EUMP2 =    -0.39057196075578D+03
 SCF Done:  E(RHF) =  -389.157061799     A.U. after   10 cycles
 E2 =    -0.1416312287D+01 EUMP2 =    -0.39057337408553D+03
 SCF Done:  E(RHF) =  -389.157054272     A.U. after    9 cycles
 E2 =    -0.1416427055D+01 EUMP2 =    -0.39057348132603D+03
 SCF Done:  E(RHF) =  -389.156932601     A.U. after    9 cycles
 E2 =    -0.1416576619D+01 EUMP2 =    -0.39057350921964D+03
 SCF Done:  E(RHF) =  -389.156869240     A.U. after    9 cycles
 E2 =    -0.1416657089D+01 EUMP2 =    -0.39057352632888D+03
 SCF Done:  E(RHF) =  -389.156836836     A.U. after    9 cycles
 E2 =    -0.1416697945D+01 EUMP2 =    -0.39057353478154D+03
 SCF Done:  E(RHF) =  -389.156861350     A.U. after    8 cycles
 E2 =    -0.1416680335D+01 EUMP2 =    -0.39057354168480D+03
 SCF Done:  E(RHF) =  -389.156909527     A.U. after    8 cycles
 E2 =    -0.1416639271D+01 EUMP2 =    -0.39057354879805D+03
 SCF Done:  E(RHF) =  -389.156923019     A.U. after    8 cycles
 E2 =    -0.1416628253D+01 EUMP2 =    -0.39057355127169D+03
 SCF Done:  E(RHF) =  -389.156921351     A.U. after    8 cycles
 E2 =    -0.1416630752D+01 EUMP2 =    -0.39057355210296D+03
 SCF Done:  E(RHF) =  -389.156909014     A.U. after    8 cycles
 E2 =    -0.1416643531D+01 EUMP2 =    -0.39057355254491D+03
 SCF Done:  E(RHF) =  -389.156899865     A.U. after    7 cycles
 E2 =    -0.1416652817D+01 EUMP2 =    -0.39057355268191D+03
 SCF Done:  E(RHF) =  -389.156891746     A.U. after    7 cycles
 E2 =    -0.1416661064D+01 EUMP2 =    -0.39057355280980D+03
 SCF Done:  E(RHF) =  -389.156885236     A.U. after    8 cycles
 E2 =    -0.1416667651D+01 EUMP2 =    -0.39057355288731D+03
 SCF Done:  E(RHF) =  -389.156884787     A.U. after    7 cycles
 E2 =    -0.1416668122D+01 EUMP2 =    -0.39057355290886D+03
 SCF Done:  E(RHF) =  -389.156884223     A.U. after    7 cycles
 E2 =    -0.1416668699D+01 EUMP2 =    -0.39057355292209D+03
 SCF Done:  E(RHF) =  -389.156883430     A.U. after    7 cycles
 E2 =    -0.1416669502D+01 EUMP2 =    -0.39057355293289D+03
 SCF Done:  E(RHF) =  -389.156881506     A.U. after    7 cycles
 E2 =    -0.1416671440D+01 EUMP2 =    -0.39057355294537D+03
 SCF Done:  E(RHF) =  -389.156879207     A.U. after    7 cycles
 E2 =    -0.1416673747D+01 EUMP2 =    -0.39057355295444D+03
 Optimization completed.
    -- Stationary point found.

                         Standard orientation:
 ---------------------------------------------------------------------
 Center     Atomic      Atomic             Coordinates (Angstroms)
 Number     Number       Type             X           Y           Z
 ---------------------------------------------------------------------
      1          6           0       -0.735172   -0.049078    0.599760
      2          1           0       -0.223416    0.624743    1.292499
      3          1           0       -0.858057   -0.995635    1.128936
      4          6           0       -2.067656    0.543249    0.215792
      5          6           0       -2.104157    2.045368    0.133366
      6          1           0       -1.333938    2.419913   -0.544712
      7          1           0       -3.069527    2.403681   -0.221847
      8          1           0       -1.910798    2.492460    1.110905
      9          6           0       -3.153236   -0.192400   -0.087705
     10          1           0       -4.055793    0.338639   -0.377518
     11          6           0       -3.263931   -1.686752   -0.074230
     12          1           0       -4.039623   -2.014396    0.620456
     13          1           0       -3.542746   -2.060853   -1.061015
     14          1           0       -2.331811   -2.169073    0.210543
     15          6           0        2.813791    1.324569   -0.266419
     16          1           0        3.190169    1.794765    0.644555
     17          1           0        1.881718    1.815019   -0.535191
     18          1           0        3.545443    1.527246   -1.051715
     19          6           0        2.660162   -0.156651   -0.058483
     20          6           0        3.916378   -0.864529    0.368679
     21          1           0        4.708400   -0.730899   -0.371682
     22          1           0        3.748899   -1.932406    0.500322
     23          1           0        4.291658   -0.457676    1.310391
     24          6           0        1.510453   -0.834982   -0.233754
     25          1           0        1.524738   -1.902884   -0.030081
     26          6           0        0.175906   -0.271952   -0.622745
     27          1           0        0.287106    0.667824   -1.165180
     28          1           0       -0.327651   -0.961522   -1.305225
 ---------------------------------------------------------------------

 The electronic state is 1-A.
 Alpha  occ. eigenvalues --  -11.23028 -11.22456 -11.21863 -11.21726 -11.21721
 Alpha  occ. eigenvalues --  -11.21541 -11.21497 -11.21449 -11.21393 -11.21358
 Alpha  occ. eigenvalues --   -1.10803  -1.08495  -1.01828  -0.98138  -0.93839
 Alpha  occ. eigenvalues --   -0.91936  -0.86954  -0.82861  -0.70567  -0.69489
 Alpha  occ. eigenvalues --   -0.64754  -0.61539  -0.60720  -0.58828  -0.58414
 Alpha  occ. eigenvalues --   -0.56814  -0.55405  -0.54979  -0.53298  -0.52217
 Alpha  occ. eigenvalues --   -0.51714  -0.51214  -0.50653  -0.50166  -0.47383
 Alpha  occ. eigenvalues --   -0.46917  -0.44458  -0.33328  -0.31563
 Alpha virt. eigenvalues --    0.18100   0.19932   0.22053   0.24536   0.24955
 Alpha virt. eigenvalues --    0.27424   0.28601   0.28877   0.30353   0.30694
 Alpha virt. eigenvalues --    0.31966   0.32601   0.32969   0.33726   0.34466

 Mulliken charges:
               1
     1  C   -0.235696
     2  H    0.118365
     3  H    0.121814
     4  C    0.017883
     5  C   -0.340845
     6  H    0.111985
     7  H    0.118112
     8  H    0.118156
     9  C   -0.153908
    10  H    0.115552
    11  C   -0.353585
    12  H    0.120250
    13  H    0.120163
    14  H    0.115581
    15  C   -0.348771
    16  H    0.119572
    17  H    0.118676
    18  H    0.120971
    19  C    0.027041
    20  C   -0.342746
    21  H    0.116299
    22  H    0.119226
    23  H    0.115688
    24  C   -0.163245
    25  H    0.116321
    26  C   -0.234395
    27  H    0.118132
    28  H    0.123405
 Sum of Mulliken charges =  -0.00000

 Dipole moment (field-independent basis, Debye):
    X=              0.3626    Y=              0.1699    Z=              0.0498  Tot=              0.4035
 Quadrupole moment (field-independent basis, Debye-Ang):
   XX=            -63.7582   YY=            -63.7112   ZZ=            -67.3994
   XY=              1.0617   XZ=              1.2177   YZ=             -0.3674

 Normal termination of Gaussian 16 at Fri Sep 17 17:22:51 2021.
