 Gaussian 16, Revision A.03,
 Gaussian 16:  EM64L-G16RevA.03 25-Dec-2016

 ---------------------
 #p opt mp2/6-31g(d,p)
 ---------------------

 --------------------------------------------------
 Conformer number 1364. Energy MM = 23.242 kcal/mol
 --------------------------------------------------
 Symbolic Z-matrix:
 Charge =  0 Multiplicity = 1

 SCF Done:  E(RHF) =  -389.155212624     A.U. after   13 cycles
 E2 =    -0.1416940373D+01 EUMP2 =    -0.39057215299704D+03
 SCF Done:  E(RHF) =  -389.157042447     A.U. after   10 cycles
 E2 =    -0.1416585302D+01 EUMP2 =    -0.39057362774961D+03
 SCF Done:  E(RHF) =  -389.157029019     A.U. after   10 cycles
 E2 =    -0.1416745213D+01 EUMP2 =    -0.39057377423256D+03
 SCF Done:  E(RHF) =  -389.156867474     A.U. after   10 cycles
 E2 =    -0.1416946208D+01 EUMP2 =    -0.39057381368200D+03
 SCF Done:  E(RHF) =  -389.156787589     A.U. after    9 cycles
 E2 =    -0.1417044145D+01 EUMP2 =    -0.39057383173349D+03
 SCF Done:  E(RHF) =  -389.156773147     A.U. after    9 cycles
 E2 =    -0.1417073142D+01 EUMP2 =    -0.39057384628894D+03
 SCF Done:  E(RHF) =  -389.156760911     A.U. after    9 cycles
 E2 =    -0.1417091940D+01 EUMP2 =    -0.39057385285148D+03
 SCF Done:  E(RHF) =  -389.156781730     A.U. after    9 cycles
 E2 =    -0.1417079050D+01 EUMP2 =    -0.39057386077954D+03
 SCF Done:  E(RHF) =  -389.156771513     A.U. after    8 cycles
 E2 =    -0.1417092267D+01 EUMP2 =    -0.39057386378008D+03
 SCF Done:  E(RHF) =  -389.156767795     A.U. after    8 cycles
 E2 =    -0.1417096497D+01 EUMP2 =    -0.39057386429159D+03
 SCF Done:  E(RHF) =  -389.156757614     A.U. after    7 cycles
 E2 =    -0.1417106857D+01 EUMP2 =    -0.39057386447101D+03
 SCF Done:  E(RHF) =  -389.156754768     A.U. after    7 cycles
 E2 =    -0.1417109764D+01 EUMP2 =    -0.39057386453179D+03
 SCF Done:  E(RHF) =  -389.156753429     A.U. after    7 cycles
 E2 =    -0.1417111147D+01 EUMP2 =    -0.39057386457631D+03
 Optimization completed.
    -- Stationary point found.

                         Standard orientation:
 ---------------------------------------------------------------------
 Center     Atomic      Atomic             Coordinates (Angstroms)
 Number     Number       Type             X           Y           Z
 ---------------------------------------------------------------------
      1          6           0        0.771607   -0.568568    0.573565
      2          1           0        0.668085   -1.485500    1.160938
      3          1           0        0.434181    0.245283    1.217230
      4          6           0        2.214026   -0.393329    0.170069
      5          6           0        2.980765   -1.666245   -0.064977
      6          1           0        2.476559   -2.296860   -0.800624
      7          1           0        3.988689   -1.465701   -0.426073
      8          1           0        3.055785   -2.249823    0.855150
      9          6           0        2.788609    0.807939   -0.026814
     10          1           0        3.827904    0.823829   -0.343286
     11          6           0        2.147311    2.151891    0.141924
     12          1           0        2.677193    2.747028    0.888113
     13          1           0        2.179303    2.713954   -0.793366
     14          1           0        1.106285    2.078475    0.448288
     15          6           0       -3.939277   -0.466991    0.381607
     16          1           0       -4.693641   -0.171268   -0.351044
     17          1           0       -3.994272   -1.546767    0.511286
     18          1           0       -4.213772    0.006266    1.327064
     19          6           0       -2.568196   -0.032332   -0.057323
     20          6           0       -2.413467    1.449344   -0.261181
     21          1           0       -3.100652    1.803969   -1.032670
     22          1           0       -2.667188    1.983657    0.656953
     23          1           0       -1.404444    1.735288   -0.547281
     24          6           0       -1.584557   -0.932201   -0.245624
     25          1           0       -1.815019   -1.975144   -0.043165
     26          6           0       -0.167066   -0.648292   -0.645623
     27          1           0       -0.088872    0.283849   -1.206544
     28          1           0        0.185349   -1.437835   -1.314703
 ---------------------------------------------------------------------

 The electronic state is 1-A.
 Alpha  occ. eigenvalues --  -11.23020 -11.22460 -11.21868 -11.21729 -11.21712
 Alpha  occ. eigenvalues --  -11.21539 -11.21506 -11.21436 -11.21417 -11.21348
 Alpha  occ. eigenvalues --   -1.10821  -1.08492  -1.01823  -0.98143  -0.93838
 Alpha  occ. eigenvalues --   -0.91939  -0.86963  -0.82855  -0.70494  -0.69519
 Alpha  occ. eigenvalues --   -0.64988  -0.61512  -0.60591  -0.58878  -0.58366
 Alpha  occ. eigenvalues --   -0.56774  -0.55298  -0.54966  -0.53295  -0.52261
 Alpha  occ. eigenvalues --   -0.51859  -0.51173  -0.50832  -0.49581  -0.48519
 Alpha  occ. eigenvalues --   -0.46073  -0.44624  -0.33371  -0.31514
 Alpha virt. eigenvalues --    0.18142   0.19779   0.22152   0.24486   0.25192
 Alpha virt. eigenvalues --    0.27439   0.28535   0.28922   0.30318   0.30811
 Alpha virt. eigenvalues --    0.31477   0.32261   0.33202   0.33794   0.34383

 Mulliken charges:
               1
     1  C   -0.236021
     2  H    0.115272
     3  H    0.125346
     4  C    0.018322
     5  C   -0.341505
     6  H    0.114461
     7  H    0.117792
     8  H    0.117845
     9  C   -0.154256
    10  H    0.115801
    11  C   -0.355567
    12  H    0.120830
    13  H    0.119588
    14  H    0.116140
    15  C   -0.342631
    16  H    0.116356
    17  H    0.119222
    18  H    0.115672
    19  C    0.027222
    20  C   -0.350727
    21  H    0.121058
    22  H    0.119352
    23  H    0.120473
    24  C   -0.163543
    25  H    0.116803
    26  C   -0.235486
    27  H    0.123802
    28  H    0.118380
 Sum of Mulliken charges =  -0.00000

 Dipole moment (field-independent basis, Debye):
    X=             -0.3027    Y=              0.1253    Z=              0.0460  Tot=              0.3308
 Quadrupole moment (field-independent basis, Debye-Ang):
   XX=            -64.3023   YY=            -63.2901   ZZ=            -67.3956
   XY=             -0.7521   XZ=             -1.2367   YZ=             -0.3487

 Normal termination of Gaussian 16 at Fri Sep 17 14:21:48 2021.
