 Gaussian 16, Revision A.03,
 Gaussian 16:  EM64L-G16RevA.03 25-Dec-2016

 ---------------------
 #p opt mp2/6-31g(d,p)
 ---------------------

 -------------------------------------------------
 Conformer number 493. Energy MM = 23.242 kcal/mol
 -------------------------------------------------
 Symbolic Z-matrix:
 Charge =  0 Multiplicity = 1

 SCF Done:  E(RHF) =  -389.155212648     A.U. after   13 cycles
 E2 =    -0.1416938229D+01 EUMP2 =    -0.39057215087664D+03
 SCF Done:  E(RHF) =  -389.157042788     A.U. after   10 cycles
 E2 =    -0.1416584782D+01 EUMP2 =    -0.39057362756995D+03
 SCF Done:  E(RHF) =  -389.157028958     A.U. after   10 cycles
 E2 =    -0.1416745245D+01 EUMP2 =    -0.39057377420298D+03
 SCF Done:  E(RHF) =  -389.156867458     A.U. after   10 cycles
 E2 =    -0.1416946217D+01 EUMP2 =    -0.39057381367487D+03
 SCF Done:  E(RHF) =  -389.156787560     A.U. after    9 cycles
 E2 =    -0.1417044193D+01 EUMP2 =    -0.39057383175304D+03
 SCF Done:  E(RHF) =  -389.156773181     A.U. after    9 cycles
 E2 =    -0.1417073106D+01 EUMP2 =    -0.39057384628761D+03
 SCF Done:  E(RHF) =  -389.156761017     A.U. after    9 cycles
 E2 =    -0.1417091835D+01 EUMP2 =    -0.39057385285213D+03
 SCF Done:  E(RHF) =  -389.156781771     A.U. after    9 cycles
 E2 =    -0.1417079005D+01 EUMP2 =    -0.39057386077673D+03
 SCF Done:  E(RHF) =  -389.156771475     A.U. after    8 cycles
 E2 =    -0.1417092310D+01 EUMP2 =    -0.39057386378475D+03
 SCF Done:  E(RHF) =  -389.156767820     A.U. after    8 cycles
 E2 =    -0.1417096473D+01 EUMP2 =    -0.39057386429312D+03
 SCF Done:  E(RHF) =  -389.156757644     A.U. after    7 cycles
 E2 =    -0.1417106828D+01 EUMP2 =    -0.39057386447173D+03
 SCF Done:  E(RHF) =  -389.156754803     A.U. after    7 cycles
 E2 =    -0.1417109729D+01 EUMP2 =    -0.39057386453221D+03
 SCF Done:  E(RHF) =  -389.156753449     A.U. after    7 cycles
 E2 =    -0.1417111127D+01 EUMP2 =    -0.39057386457645D+03
 Optimization completed.
    -- Stationary point found.

                         Standard orientation:
 ---------------------------------------------------------------------
 Center     Atomic      Atomic             Coordinates (Angstroms)
 Number     Number       Type             X           Y           Z
 ---------------------------------------------------------------------
      1          6           0       -0.771609   -0.568570    0.573566
      2          1           0       -0.668088   -1.485503    1.160937
      3          1           0       -0.434185    0.245281    1.217233
      4          6           0       -2.214027   -0.393329    0.170067
      5          6           0       -2.980767   -1.666244   -0.064982
      6          1           0       -3.055791   -2.249822    0.855145
      7          1           0       -2.476557   -2.296859   -0.800627
      8          1           0       -3.988689   -1.465699   -0.426083
      9          6           0       -2.788610    0.807939   -0.026813
     10          1           0       -3.827905    0.823831   -0.343287
     11          6           0       -2.147312    2.151891    0.141928
     12          1           0       -1.106287    2.078474    0.448300
     13          1           0       -2.677197    2.747029    0.888115
     14          1           0       -2.179297    2.713954   -0.793362
     15          6           0        2.413473    1.449343   -0.261188
     16          1           0        3.100657    1.803962   -1.032681
     17          1           0        1.404450    1.735290   -0.547286
     18          1           0        2.667199    1.983660    0.656943
     19          6           0        2.568197   -0.032332   -0.057323
     20          6           0        3.939277   -0.466993    0.381609
     21          1           0        3.994269   -1.546769    0.511293
     22          1           0        4.693642   -0.171276   -0.351043
     23          1           0        4.213773    0.006267    1.327064
     24          6           0        1.584556   -0.932199   -0.245620
     25          1           0        1.815015   -1.975142   -0.043156
     26          6           0        0.167066   -0.648290   -0.645621
     27          1           0       -0.185348   -1.437831   -1.314703
     28          1           0        0.088872    0.283852   -1.206540
 ---------------------------------------------------------------------

 The electronic state is 1-A.
 Alpha  occ. eigenvalues --  -11.23020 -11.22460 -11.21868 -11.21730 -11.21712
 Alpha  occ. eigenvalues --  -11.21539 -11.21506 -11.21436 -11.21417 -11.21348
 Alpha  occ. eigenvalues --   -1.10821  -1.08492  -1.01823  -0.98143  -0.93838
 Alpha  occ. eigenvalues --   -0.91939  -0.86963  -0.82855  -0.70494  -0.69519
 Alpha  occ. eigenvalues --   -0.64988  -0.61512  -0.60591  -0.58878  -0.58366
 Alpha  occ. eigenvalues --   -0.56774  -0.55298  -0.54966  -0.53295  -0.52261
 Alpha  occ. eigenvalues --   -0.51859  -0.51173  -0.50832  -0.49581  -0.48519
 Alpha  occ. eigenvalues --   -0.46073  -0.44624  -0.33371  -0.31514
 Alpha virt. eigenvalues --    0.18142   0.19779   0.22152   0.24486   0.25192
 Alpha virt. eigenvalues --    0.27439   0.28535   0.28922   0.30318   0.30811
 Alpha virt. eigenvalues --    0.31477   0.32261   0.33202   0.33794   0.34383

 Mulliken charges:
               1
     1  C   -0.236021
     2  H    0.115272
     3  H    0.125346
     4  C    0.018322
     5  C   -0.341505
     6  H    0.117845
     7  H    0.114461
     8  H    0.117792
     9  C   -0.154256
    10  H    0.115801
    11  C   -0.355567
    12  H    0.116140
    13  H    0.120829
    14  H    0.119588
    15  C   -0.350727
    16  H    0.121058
    17  H    0.120474
    18  H    0.119352
    19  C    0.027222
    20  C   -0.342631
    21  H    0.119222
    22  H    0.116356
    23  H    0.115672
    24  C   -0.163542
    25  H    0.116803
    26  C   -0.235486
    27  H    0.118380
    28  H    0.123802
 Sum of Mulliken charges =  -0.00000

 Dipole moment (field-independent basis, Debye):
    X=              0.3027    Y=              0.1253    Z=              0.0460  Tot=              0.3308
 Quadrupole moment (field-independent basis, Debye-Ang):
   XX=            -64.3023   YY=            -63.2901   ZZ=            -67.3956
   XY=              0.7521   XZ=              1.2367   YZ=             -0.3487

 Normal termination of Gaussian 16 at Fri Sep 17 16:41:30 2021.
