 Gaussian 16, Revision A.03,
 Gaussian 16:  EM64L-G16RevA.03 25-Dec-2016

 ---------------------
 #p opt mp2/6-31g(d,p)
 ---------------------

 --------------------------------------------------
 Conformer number 1639. Energy MM = 23.242 kcal/mol
 --------------------------------------------------
 Symbolic Z-matrix:
 Charge =  0 Multiplicity = 1

 SCF Done:  E(RHF) =  -389.155208220     A.U. after   13 cycles
 E2 =    -0.1416943527D+01 EUMP2 =    -0.39057215174689D+03
 SCF Done:  E(RHF) =  -389.157042598     A.U. after   10 cycles
 E2 =    -0.1416585138D+01 EUMP2 =    -0.39057362773669D+03
 SCF Done:  E(RHF) =  -389.157029276     A.U. after   10 cycles
 E2 =    -0.1416744926D+01 EUMP2 =    -0.39057377420233D+03
 SCF Done:  E(RHF) =  -389.156867731     A.U. after   10 cycles
 E2 =    -0.1416945946D+01 EUMP2 =    -0.39057381367680D+03
 SCF Done:  E(RHF) =  -389.156787678     A.U. after    9 cycles
 E2 =    -0.1417044082D+01 EUMP2 =    -0.39057383175926D+03
 SCF Done:  E(RHF) =  -389.156773191     A.U. after    9 cycles
 E2 =    -0.1417073100D+01 EUMP2 =    -0.39057384629128D+03
 SCF Done:  E(RHF) =  -389.156760956     A.U. after    9 cycles
 E2 =    -0.1417091903D+01 EUMP2 =    -0.39057385285917D+03
 SCF Done:  E(RHF) =  -389.156781764     A.U. after    9 cycles
 E2 =    -0.1417079016D+01 EUMP2 =    -0.39057386078009D+03
 SCF Done:  E(RHF) =  -389.156771546     A.U. after    8 cycles
 E2 =    -0.1417092240D+01 EUMP2 =    -0.39057386378534D+03
 SCF Done:  E(RHF) =  -389.156767889     A.U. after    8 cycles
 E2 =    -0.1417096405D+01 EUMP2 =    -0.39057386429346D+03
 SCF Done:  E(RHF) =  -389.156757695     A.U. after    7 cycles
 E2 =    -0.1417106778D+01 EUMP2 =    -0.39057386447213D+03
 SCF Done:  E(RHF) =  -389.156754843     A.U. after    7 cycles
 E2 =    -0.1417109690D+01 EUMP2 =    -0.39057386453245D+03
 SCF Done:  E(RHF) =  -389.156753472     A.U. after    7 cycles
 E2 =    -0.1417111104D+01 EUMP2 =    -0.39057386457656D+03
 Optimization completed.
    -- Stationary point found.

                         Standard orientation:
 ---------------------------------------------------------------------
 Center     Atomic      Atomic             Coordinates (Angstroms)
 Number     Number       Type             X           Y           Z
 ---------------------------------------------------------------------
      1          6           0       -0.771612   -0.568571    0.573567
      2          1           0       -0.434188    0.245277    1.217238
      3          1           0       -0.668092   -1.485506    1.160934
      4          6           0       -2.214029   -0.393328    0.170066
      5          6           0       -2.980769   -1.666243   -0.064987
      6          1           0       -2.476558   -2.296857   -0.800631
      7          1           0       -3.988690   -1.465697   -0.426090
      8          1           0       -3.055796   -2.249822    0.855139
      9          6           0       -2.788610    0.807940   -0.026813
     10          1           0       -3.827905    0.823833   -0.343289
     11          6           0       -2.147311    2.151891    0.141933
     12          1           0       -2.677199    2.747029    0.888117
     13          1           0       -2.179291    2.713955   -0.793357
     14          1           0       -1.106288    2.078472    0.448309
     15          6           0        3.939277   -0.466997    0.381610
     16          1           0        4.693643   -0.171285   -0.351043
     17          1           0        4.213775    0.006266    1.327063
     18          1           0        3.994265   -1.546772    0.511298
     19          6           0        2.568199   -0.032333   -0.057323
     20          6           0        2.413480    1.449343   -0.261193
     21          1           0        3.100666    1.803956   -1.032686
     22          1           0        2.667206    1.983661    0.656936
     23          1           0        1.404459    1.735292   -0.547293
     24          6           0        1.584555   -0.932197   -0.245616
     25          1           0        1.815011   -1.975140   -0.043149
     26          6           0        0.167065   -0.648287   -0.645619
     27          1           0       -0.185348   -1.437826   -1.314705
     28          1           0        0.088872    0.283858   -1.206534
 ---------------------------------------------------------------------

 The electronic state is 1-A.
 Alpha  occ. eigenvalues --  -11.23020 -11.22460 -11.21868 -11.21730 -11.21712
 Alpha  occ. eigenvalues --  -11.21539 -11.21506 -11.21436 -11.21417 -11.21348
 Alpha  occ. eigenvalues --   -1.10821  -1.08492  -1.01823  -0.98143  -0.93838
 Alpha  occ. eigenvalues --   -0.91939  -0.86963  -0.82855  -0.70494  -0.69519
 Alpha  occ. eigenvalues --   -0.64988  -0.61512  -0.60591  -0.58878  -0.58366
 Alpha  occ. eigenvalues --   -0.56774  -0.55298  -0.54966  -0.53295  -0.52261
 Alpha  occ. eigenvalues --   -0.51859  -0.51173  -0.50832  -0.49581  -0.48519
 Alpha  occ. eigenvalues --   -0.46073  -0.44624  -0.33371  -0.31514
 Alpha virt. eigenvalues --    0.18142   0.19779   0.22152   0.24486   0.25192
 Alpha virt. eigenvalues --    0.27439   0.28535   0.28922   0.30318   0.30811
 Alpha virt. eigenvalues --    0.31477   0.32261   0.33202   0.33794   0.34383

 Mulliken charges:
               1
     1  C   -0.236021
     2  H    0.125346
     3  H    0.115272
     4  C    0.018322
     5  C   -0.341505
     6  H    0.114461
     7  H    0.117792
     8  H    0.117845
     9  C   -0.154256
    10  H    0.115801
    11  C   -0.355567
    12  H    0.120829
    13  H    0.119588
    14  H    0.116140
    15  C   -0.342631
    16  H    0.116356
    17  H    0.115672
    18  H    0.119222
    19  C    0.027221
    20  C   -0.350727
    21  H    0.121058
    22  H    0.119352
    23  H    0.120474
    24  C   -0.163542
    25  H    0.116803
    26  C   -0.235486
    27  H    0.118380
    28  H    0.123802
 Sum of Mulliken charges =  -0.00000

 Dipole moment (field-independent basis, Debye):
    X=              0.3027    Y=              0.1253    Z=              0.0460  Tot=              0.3308
 Quadrupole moment (field-independent basis, Debye-Ang):
   XX=            -64.3023   YY=            -63.2901   ZZ=            -67.3956
   XY=              0.7521   XZ=              1.2367   YZ=             -0.3487

 Normal termination of Gaussian 16 at Fri Sep 17 14:59:01 2021.
