 Gaussian 16, Revision A.03,
 Gaussian 16:  EM64L-G16RevA.03 25-Dec-2016

 ---------------------
 #p opt mp2/6-31g(d,p)
 ---------------------

 --------------------------------------------------
 Conformer number 3477. Energy MM = 23.242 kcal/mol
 --------------------------------------------------
 Symbolic Z-matrix:
 Charge =  0 Multiplicity = 1

 SCF Done:  E(RHF) =  -389.155207774     A.U. after   13 cycles
 E2 =    -0.1416944529D+01 EUMP2 =    -0.39057215230360D+03
 SCF Done:  E(RHF) =  -389.157042987     A.U. after   10 cycles
 E2 =    -0.1416585091D+01 EUMP2 =    -0.39057362807820D+03
 SCF Done:  E(RHF) =  -389.157029558     A.U. after   10 cycles
 E2 =    -0.1416744694D+01 EUMP2 =    -0.39057377425243D+03
 SCF Done:  E(RHF) =  -389.156867947     A.U. after   10 cycles
 E2 =    -0.1416945722D+01 EUMP2 =    -0.39057381366890D+03
 SCF Done:  E(RHF) =  -389.156787596     A.U. after    9 cycles
 E2 =    -0.1417044185D+01 EUMP2 =    -0.39057383178134D+03
 SCF Done:  E(RHF) =  -389.156773050     A.U. after    9 cycles
 E2 =    -0.1417073235D+01 EUMP2 =    -0.39057384628547D+03
 SCF Done:  E(RHF) =  -389.156760716     A.U. after    9 cycles
 E2 =    -0.1417092119D+01 EUMP2 =    -0.39057385283496D+03
 SCF Done:  E(RHF) =  -389.156781818     A.U. after    9 cycles
 E2 =    -0.1417078975D+01 EUMP2 =    -0.39057386079335D+03
 SCF Done:  E(RHF) =  -389.156771689     A.U. after    8 cycles
 E2 =    -0.1417092092D+01 EUMP2 =    -0.39057386378065D+03
 SCF Done:  E(RHF) =  -389.156767878     A.U. after    8 cycles
 E2 =    -0.1417096414D+01 EUMP2 =    -0.39057386429227D+03
 SCF Done:  E(RHF) =  -389.156757651     A.U. after    7 cycles
 E2 =    -0.1417106820D+01 EUMP2 =    -0.39057386447135D+03
 SCF Done:  E(RHF) =  -389.156754821     A.U. after    7 cycles
 E2 =    -0.1417109711D+01 EUMP2 =    -0.39057386453193D+03
 SCF Done:  E(RHF) =  -389.156753464     A.U. after    7 cycles
 E2 =    -0.1417111113D+01 EUMP2 =    -0.39057386457639D+03
 Optimization completed.
    -- Stationary point found.

                         Standard orientation:
 ---------------------------------------------------------------------
 Center     Atomic      Atomic             Coordinates (Angstroms)
 Number     Number       Type             X           Y           Z
 ---------------------------------------------------------------------
      1          6           0        0.771610   -0.568570    0.573566
      2          1           0        0.434186    0.245280    1.217234
      3          1           0        0.668090   -1.485504    1.160937
      4          6           0        2.214028   -0.393328    0.170067
      5          6           0        2.980767   -1.666243   -0.064986
      6          1           0        3.055788   -2.249826    0.855137
      7          1           0        2.476560   -2.296854   -0.800636
      8          1           0        3.988691   -1.465697   -0.426083
      9          6           0        2.788610    0.807940   -0.026812
     10          1           0        3.827905    0.823832   -0.343287
     11          6           0        2.147312    2.151891    0.141932
     12          1           0        2.179297    2.713956   -0.793357
     13          1           0        1.106288    2.078474    0.448304
     14          1           0        2.677199    2.747028    0.888119
     15          6           0       -3.939276   -0.466993    0.381612
     16          1           0       -3.994266   -1.546768    0.511303
     17          1           0       -4.693643   -0.171282   -0.351041
     18          1           0       -4.213773    0.006273    1.327064
     19          6           0       -2.568198   -0.032332   -0.057324
     20          6           0       -2.413476    1.449343   -0.261196
     21          1           0       -1.404456    1.735288   -0.547302
     22          1           0       -2.667195    1.983662    0.656935
     23          1           0       -3.100666    1.803958   -1.032684
     24          6           0       -1.584556   -0.932199   -0.245616
     25          1           0       -1.815013   -1.975141   -0.043147
     26          6           0       -0.167066   -0.648291   -0.645620
     27          1           0       -0.088872    0.283852   -1.206538
     28          1           0        0.185347   -1.437832   -1.314702
 ---------------------------------------------------------------------

 The electronic state is 1-A.
 Alpha  occ. eigenvalues --  -11.23020 -11.22460 -11.21868 -11.21730 -11.21712
 Alpha  occ. eigenvalues --  -11.21539 -11.21506 -11.21436 -11.21417 -11.21348
 Alpha  occ. eigenvalues --   -1.10821  -1.08492  -1.01823  -0.98143  -0.93838
 Alpha  occ. eigenvalues --   -0.91939  -0.86963  -0.82855  -0.70494  -0.69519
 Alpha  occ. eigenvalues --   -0.64988  -0.61512  -0.60591  -0.58878  -0.58366
 Alpha  occ. eigenvalues --   -0.56774  -0.55298  -0.54966  -0.53295  -0.52261
 Alpha  occ. eigenvalues --   -0.51859  -0.51173  -0.50832  -0.49581  -0.48519
 Alpha  occ. eigenvalues --   -0.46073  -0.44624  -0.33371  -0.31514
 Alpha virt. eigenvalues --    0.18142   0.19779   0.22152   0.24486   0.25192
 Alpha virt. eigenvalues --    0.27439   0.28535   0.28922   0.30318   0.30811
 Alpha virt. eigenvalues --    0.31477   0.32261   0.33202   0.33794   0.34383

 Mulliken charges:
               1
     1  C   -0.236021
     2  H    0.125346
     3  H    0.115272
     4  C    0.018322
     5  C   -0.341505
     6  H    0.117844
     7  H    0.114461
     8  H    0.117792
     9  C   -0.154256
    10  H    0.115801
    11  C   -0.355567
    12  H    0.119588
    13  H    0.116140
    14  H    0.120830
    15  C   -0.342631
    16  H    0.119222
    17  H    0.116356
    18  H    0.115672
    19  C    0.027221
    20  C   -0.350727
    21  H    0.120474
    22  H    0.119352
    23  H    0.121058
    24  C   -0.163542
    25  H    0.116803
    26  C   -0.235486
    27  H    0.123802
    28  H    0.118380
 Sum of Mulliken charges =  -0.00000

 Dipole moment (field-independent basis, Debye):
    X=             -0.3027    Y=              0.1253    Z=              0.0460  Tot=              0.3308
 Quadrupole moment (field-independent basis, Debye-Ang):
   XX=            -64.3024   YY=            -63.2901   ZZ=            -67.3956
   XY=             -0.7521   XZ=             -1.2367   YZ=             -0.3487

 Normal termination of Gaussian 16 at Fri Sep 17 16:41:40 2021.
