 Gaussian 16, Revision A.03,
 Gaussian 16:  EM64L-G16RevA.03 25-Dec-2016

 ---------------------
 #p opt mp2/6-31g(d,p)
 ---------------------

 --------------------------------------------------
 Conformer number 2165. Energy MM = 23.287 kcal/mol
 --------------------------------------------------
 Symbolic Z-matrix:
 Charge =  0 Multiplicity = 1

 SCF Done:  E(RHF) =  -389.155290096     A.U. after   12 cycles
 E2 =    -0.1416667329D+01 EUMP2 =    -0.39057195742462D+03
 SCF Done:  E(RHF) =  -389.157061993     A.U. after   10 cycles
 E2 =    -0.1416312066D+01 EUMP2 =    -0.39057337405861D+03
 SCF Done:  E(RHF) =  -389.157054827     A.U. after    9 cycles
 E2 =    -0.1416426406D+01 EUMP2 =    -0.39057348123307D+03
 SCF Done:  E(RHF) =  -389.156932827     A.U. after    9 cycles
 E2 =    -0.1416576342D+01 EUMP2 =    -0.39057350916848D+03
 SCF Done:  E(RHF) =  -389.156869282     A.U. after    9 cycles
 E2 =    -0.1416657013D+01 EUMP2 =    -0.39057352629526D+03
 SCF Done:  E(RHF) =  -389.156836771     A.U. after    9 cycles
 E2 =    -0.1416697997D+01 EUMP2 =    -0.39057353476758D+03
 SCF Done:  E(RHF) =  -389.156861154     A.U. after    8 cycles
 E2 =    -0.1416680531D+01 EUMP2 =    -0.39057354168543D+03
 SCF Done:  E(RHF) =  -389.156909451     A.U. after    8 cycles
 E2 =    -0.1416639347D+01 EUMP2 =    -0.39057354879756D+03
 SCF Done:  E(RHF) =  -389.156923022     A.U. after    8 cycles
 E2 =    -0.1416628252D+01 EUMP2 =    -0.39057355127480D+03
 SCF Done:  E(RHF) =  -389.156921413     A.U. after    8 cycles
 E2 =    -0.1416630690D+01 EUMP2 =    -0.39057355210309D+03
 SCF Done:  E(RHF) =  -389.156909035     A.U. after    8 cycles
 E2 =    -0.1416643510D+01 EUMP2 =    -0.39057355254472D+03
 SCF Done:  E(RHF) =  -389.156899900     A.U. after    7 cycles
 E2 =    -0.1416652781D+01 EUMP2 =    -0.39057355268132D+03
 SCF Done:  E(RHF) =  -389.156891759     A.U. after    7 cycles
 E2 =    -0.1416661051D+01 EUMP2 =    -0.39057355280968D+03
 SCF Done:  E(RHF) =  -389.156885264     A.U. after    8 cycles
 E2 =    -0.1416667623D+01 EUMP2 =    -0.39057355288742D+03
 SCF Done:  E(RHF) =  -389.156884823     A.U. after    7 cycles
 E2 =    -0.1416668086D+01 EUMP2 =    -0.39057355290890D+03
 SCF Done:  E(RHF) =  -389.156884212     A.U. after    7 cycles
 E2 =    -0.1416668710D+01 EUMP2 =    -0.39057355292215D+03
 SCF Done:  E(RHF) =  -389.156883387     A.U. after    7 cycles
 E2 =    -0.1416669546D+01 EUMP2 =    -0.39057355293300D+03
 SCF Done:  E(RHF) =  -389.156881441     A.U. after    7 cycles
 E2 =    -0.1416671505D+01 EUMP2 =    -0.39057355294551D+03
 SCF Done:  E(RHF) =  -389.156879173     A.U. after    7 cycles
 E2 =    -0.1416673782D+01 EUMP2 =    -0.39057355295462D+03
 Optimization completed.
    -- Stationary point found.

                         Standard orientation:
 ---------------------------------------------------------------------
 Center     Atomic      Atomic             Coordinates (Angstroms)
 Number     Number       Type             X           Y           Z
 ---------------------------------------------------------------------
      1          6           0        0.735168   -0.049077    0.599756
      2          1           0        0.223409    0.624746    1.292491
      3          1           0        0.858052   -0.995632    1.128937
      4          6           0        2.067653    0.543249    0.215790
      5          6           0        2.104152    2.045368    0.133358
      6          1           0        1.333940    2.419910   -0.544728
      7          1           0        3.069526    2.403681   -0.221847
      8          1           0        1.910785    2.492464    1.110894
      9          6           0        3.153234   -0.192400   -0.087702
     10          1           0        4.055792    0.338639   -0.377514
     11          6           0        3.263930   -1.686752   -0.074220
     12          1           0        4.039615   -2.014393    0.620475
     13          1           0        3.542752   -2.060856   -1.061000
     14          1           0        2.331806   -2.169072    0.210547
     15          6           0       -2.813781    1.324572   -0.266406
     16          1           0       -3.190145    1.794763    0.644576
     17          1           0       -1.881708    1.815018   -0.535184
     18          1           0       -3.545440    1.527259   -1.051692
     19          6           0       -2.660160   -0.156651   -0.058484
     20          6           0       -3.916377   -0.864526    0.368676
     21          1           0       -3.748903   -1.932405    0.500312
     22          1           0       -4.291653   -0.457679    1.310393
     23          1           0       -4.708400   -0.730888   -0.371682
     24          6           0       -1.510453   -0.834985   -0.233763
     25          1           0       -1.524742   -1.902889   -0.030100
     26          6           0       -0.175905   -0.271957   -0.622751
     27          1           0        0.327654   -0.961529   -1.305227
     28          1           0       -0.287104    0.667817   -1.165190
 ---------------------------------------------------------------------

 The electronic state is 1-A.
 Alpha  occ. eigenvalues --  -11.23028 -11.22456 -11.21863 -11.21726 -11.21721
 Alpha  occ. eigenvalues --  -11.21541 -11.21497 -11.21449 -11.21393 -11.21358
 Alpha  occ. eigenvalues --   -1.10803  -1.08495  -1.01828  -0.98138  -0.93839
 Alpha  occ. eigenvalues --   -0.91936  -0.86954  -0.82861  -0.70567  -0.69489
 Alpha  occ. eigenvalues --   -0.64754  -0.61539  -0.60720  -0.58828  -0.58414
 Alpha  occ. eigenvalues --   -0.56814  -0.55405  -0.54979  -0.53298  -0.52217
 Alpha  occ. eigenvalues --   -0.51714  -0.51214  -0.50653  -0.50166  -0.47383
 Alpha  occ. eigenvalues --   -0.46917  -0.44458  -0.33328  -0.31563
 Alpha virt. eigenvalues --    0.18100   0.19932   0.22053   0.24536   0.24955
 Alpha virt. eigenvalues --    0.27424   0.28601   0.28877   0.30353   0.30694
 Alpha virt. eigenvalues --    0.31966   0.32601   0.32969   0.33726   0.34466

 Mulliken charges:
               1
     1  C   -0.235696
     2  H    0.118365
     3  H    0.121814
     4  C    0.017883
     5  C   -0.340845
     6  H    0.111985
     7  H    0.118112
     8  H    0.118156
     9  C   -0.153908
    10  H    0.115552
    11  C   -0.353585
    12  H    0.120250
    13  H    0.120162
    14  H    0.115581
    15  C   -0.348771
    16  H    0.119572
    17  H    0.118676
    18  H    0.120971
    19  C    0.027041
    20  C   -0.342746
    21  H    0.119226
    22  H    0.115688
    23  H    0.116299
    24  C   -0.163245
    25  H    0.116321
    26  C   -0.234395
    27  H    0.123405
    28  H    0.118132
 Sum of Mulliken charges =  -0.00000

 Dipole moment (field-independent basis, Debye):
    X=             -0.3626    Y=              0.1699    Z=              0.0498  Tot=              0.4035
 Quadrupole moment (field-independent basis, Debye-Ang):
   XX=            -63.7582   YY=            -63.7112   ZZ=            -67.3994
   XY=             -1.0617   XZ=             -1.2177   YZ=             -0.3674

 Normal termination of Gaussian 16 at Fri Sep 17 15:25:29 2021.
