 Gaussian 16, Revision A.03,
 Gaussian 16:  EM64L-G16RevA.03 25-Dec-2016

 ---------------------
 #p opt mp2/6-31g(d,p)
 ---------------------

 -------------------------------------------------
 Conformer number 394. Energy MM = 23.242 kcal/mol
 -------------------------------------------------
 Symbolic Z-matrix:
 Charge =  0 Multiplicity = 1

 SCF Done:  E(RHF) =  -389.155211572     A.U. after   13 cycles
 E2 =    -0.1416941319D+01 EUMP2 =    -0.39057215289101D+03
 SCF Done:  E(RHF) =  -389.157042923     A.U. after   10 cycles
 E2 =    -0.1416585122D+01 EUMP2 =    -0.39057362804481D+03
 SCF Done:  E(RHF) =  -389.157029288     A.U. after   10 cycles
 E2 =    -0.1416744954D+01 EUMP2 =    -0.39057377424195D+03
 SCF Done:  E(RHF) =  -389.156867800     A.U. after   10 cycles
 E2 =    -0.1416945852D+01 EUMP2 =    -0.39057381365153D+03
 SCF Done:  E(RHF) =  -389.156787264     A.U. after    9 cycles
 E2 =    -0.1417044550D+01 EUMP2 =    -0.39057383181325D+03
 SCF Done:  E(RHF) =  -389.156772913     A.U. after    9 cycles
 E2 =    -0.1417073388D+01 EUMP2 =    -0.39057384630068D+03
 SCF Done:  E(RHF) =  -389.156760678     A.U. after    9 cycles
 E2 =    -0.1417092162D+01 EUMP2 =    -0.39057385284028D+03
 SCF Done:  E(RHF) =  -389.156781801     A.U. after    9 cycles
 E2 =    -0.1417078990D+01 EUMP2 =    -0.39057386079074D+03
 SCF Done:  E(RHF) =  -389.156771704     A.U. after    8 cycles
 E2 =    -0.1417092075D+01 EUMP2 =    -0.39057386377957D+03
 SCF Done:  E(RHF) =  -389.156767878     A.U. after    8 cycles
 E2 =    -0.1417096414D+01 EUMP2 =    -0.39057386429151D+03
 SCF Done:  E(RHF) =  -389.156757626     A.U. after    7 cycles
 E2 =    -0.1417106845D+01 EUMP2 =    -0.39057386447125D+03
 SCF Done:  E(RHF) =  -389.156754802     A.U. after    7 cycles
 E2 =    -0.1417109730D+01 EUMP2 =    -0.39057386453188D+03
 SCF Done:  E(RHF) =  -389.156753452     A.U. after    7 cycles
 E2 =    -0.1417111125D+01 EUMP2 =    -0.39057386457640D+03
 Optimization completed.
    -- Stationary point found.

                         Standard orientation:
 ---------------------------------------------------------------------
 Center     Atomic      Atomic             Coordinates (Angstroms)
 Number     Number       Type             X           Y           Z
 ---------------------------------------------------------------------
      1          6           0       -0.771609   -0.568569    0.573566
      2          1           0       -0.668088   -1.485501    1.160939
      3          1           0       -0.434183    0.245283    1.217231
      4          6           0       -2.214026   -0.393329    0.170067
      5          6           0       -2.980766   -1.666244   -0.064984
      6          1           0       -3.055787   -2.249825    0.855141
      7          1           0       -2.476557   -2.296857   -0.800632
      8          1           0       -3.988689   -1.465699   -0.426082
      9          6           0       -2.788610    0.807939   -0.026812
     10          1           0       -3.827905    0.823830   -0.343286
     11          6           0       -2.147313    2.151891    0.141930
     12          1           0       -2.677201    2.747029    0.888115
     13          1           0       -1.106289    2.078475    0.448303
     14          1           0       -2.179297    2.713954   -0.793361
     15          6           0        2.413472    1.449343   -0.261193
     16          1           0        3.100660    1.803960   -1.032683
     17          1           0        1.404451    1.735288   -0.547296
     18          1           0        2.667194    1.983662    0.656938
     19          6           0        2.568197   -0.032332   -0.057323
     20          6           0        3.939276   -0.466991    0.381611
     21          1           0        3.994268   -1.546766    0.511300
     22          1           0        4.213773    0.006273    1.327064
     23          1           0        4.693642   -0.171277   -0.351042
     24          6           0        1.584557   -0.932200   -0.245618
     25          1           0        1.815016   -1.975142   -0.043151
     26          6           0        0.167066   -0.648293   -0.645621
     27          1           0        0.088872    0.283849   -1.206541
     28          1           0       -0.185347   -1.437835   -1.314701
 ---------------------------------------------------------------------

 The electronic state is 1-A.
 Alpha  occ. eigenvalues --  -11.23020 -11.22460 -11.21868 -11.21729 -11.21712
 Alpha  occ. eigenvalues --  -11.21539 -11.21506 -11.21436 -11.21417 -11.21348
 Alpha  occ. eigenvalues --   -1.10821  -1.08492  -1.01823  -0.98143  -0.93838
 Alpha  occ. eigenvalues --   -0.91939  -0.86963  -0.82855  -0.70494  -0.69519
 Alpha  occ. eigenvalues --   -0.64988  -0.61512  -0.60591  -0.58878  -0.58366
 Alpha  occ. eigenvalues --   -0.56774  -0.55298  -0.54966  -0.53295  -0.52261
 Alpha  occ. eigenvalues --   -0.51859  -0.51173  -0.50832  -0.49581  -0.48519
 Alpha  occ. eigenvalues --   -0.46073  -0.44624  -0.33371  -0.31514
 Alpha virt. eigenvalues --    0.18142   0.19779   0.22152   0.24486   0.25192
 Alpha virt. eigenvalues --    0.27439   0.28535   0.28922   0.30318   0.30811
 Alpha virt. eigenvalues --    0.31477   0.32261   0.33202   0.33794   0.34383

 Mulliken charges:
               1
     1  C   -0.236021
     2  H    0.115272
     3  H    0.125346
     4  C    0.018322
     5  C   -0.341505
     6  H    0.117845
     7  H    0.114461
     8  H    0.117792
     9  C   -0.154256
    10  H    0.115801
    11  C   -0.355567
    12  H    0.120829
    13  H    0.116140
    14  H    0.119588
    15  C   -0.350727
    16  H    0.121058
    17  H    0.120474
    18  H    0.119352
    19  C    0.027221
    20  C   -0.342631
    21  H    0.119222
    22  H    0.115672
    23  H    0.116356
    24  C   -0.163542
    25  H    0.116803
    26  C   -0.235486
    27  H    0.123802
    28  H    0.118380
 Sum of Mulliken charges =  -0.00000

 Dipole moment (field-independent basis, Debye):
    X=              0.3027    Y=              0.1253    Z=              0.0460  Tot=              0.3308
 Quadrupole moment (field-independent basis, Debye-Ang):
   XX=            -64.3024   YY=            -63.2901   ZZ=            -67.3956
   XY=              0.7521   XZ=              1.2367   YZ=             -0.3487

 Normal termination of Gaussian 16 at Fri Sep 17 16:54:31 2021.
