 Gaussian 16, Revision A.03,
 Gaussian 16:  EM64L-G16RevA.03 25-Dec-2016

 ---------------------
 #p opt mp2/6-31g(d,p)
 ---------------------

 -------------------------------------------------
 Conformer number 608. Energy MM = 23.242 kcal/mol
 -------------------------------------------------
 Symbolic Z-matrix:
 Charge =  0 Multiplicity = 1

 SCF Done:  E(RHF) =  -389.155206922     A.U. after   13 cycles
 E2 =    -0.1416944669D+01 EUMP2 =    -0.39057215159127D+03
 SCF Done:  E(RHF) =  -389.157042703     A.U. after   10 cycles
 E2 =    -0.1416585099D+01 EUMP2 =    -0.39057362780223D+03
 SCF Done:  E(RHF) =  -389.157029424     A.U. after   10 cycles
 E2 =    -0.1416744744D+01 EUMP2 =    -0.39057377416844D+03
 SCF Done:  E(RHF) =  -389.156867825     A.U. after   10 cycles
 E2 =    -0.1416945823D+01 EUMP2 =    -0.39057381364768D+03
 SCF Done:  E(RHF) =  -389.156787618     A.U. after    9 cycles
 E2 =    -0.1417044130D+01 EUMP2 =    -0.39057383174775D+03
 SCF Done:  E(RHF) =  -389.156773082     A.U. after    9 cycles
 E2 =    -0.1417073195D+01 EUMP2 =    -0.39057384627707D+03
 SCF Done:  E(RHF) =  -389.156760783     A.U. after    9 cycles
 E2 =    -0.1417092059D+01 EUMP2 =    -0.39057385284224D+03
 SCF Done:  E(RHF) =  -389.156781770     A.U. after    9 cycles
 E2 =    -0.1417079012D+01 EUMP2 =    -0.39057386078166D+03
 SCF Done:  E(RHF) =  -389.156771597     A.U. after    8 cycles
 E2 =    -0.1417092186D+01 EUMP2 =    -0.39057386378296D+03
 SCF Done:  E(RHF) =  -389.156767869     A.U. after    8 cycles
 E2 =    -0.1417096424D+01 EUMP2 =    -0.39057386429342D+03
 SCF Done:  E(RHF) =  -389.156757683     A.U. after    7 cycles
 E2 =    -0.1417106789D+01 EUMP2 =    -0.39057386447171D+03
 SCF Done:  E(RHF) =  -389.156754840     A.U. after    7 cycles
 E2 =    -0.1417109693D+01 EUMP2 =    -0.39057386453212D+03
 SCF Done:  E(RHF) =  -389.156753466     A.U. after    7 cycles
 E2 =    -0.1417111110D+01 EUMP2 =    -0.39057386457641D+03
 Optimization completed.
    -- Stationary point found.

                         Standard orientation:
 ---------------------------------------------------------------------
 Center     Atomic      Atomic             Coordinates (Angstroms)
 Number     Number       Type             X           Y           Z
 ---------------------------------------------------------------------
      1          6           0       -0.771611   -0.568571    0.573567
      2          1           0       -0.434187    0.245278    1.217236
      3          1           0       -0.668091   -1.485506    1.160936
      4          6           0       -2.214029   -0.393328    0.170067
      5          6           0       -2.980769   -1.666243   -0.064987
      6          1           0       -2.476561   -2.296854   -0.800637
      7          1           0       -3.055790   -2.249826    0.855136
      8          1           0       -3.988692   -1.465696   -0.426084
      9          6           0       -2.788610    0.807941   -0.026812
     10          1           0       -3.827904    0.823833   -0.343288
     11          6           0       -2.147311    2.151891    0.141933
     12          1           0       -2.677197    2.747028    0.888119
     13          1           0       -1.106287    2.078473    0.448305
     14          1           0       -2.179294    2.713956   -0.793356
     15          6           0        2.413478    1.449342   -0.261195
     16          1           0        3.100669    1.803957   -1.032683
     17          1           0        1.404458    1.735289   -0.547302
     18          1           0        2.667197    1.983662    0.656936
     19          6           0        2.568198   -0.032333   -0.057324
     20          6           0        3.939276   -0.466994    0.381611
     21          1           0        4.213774    0.006271    1.327063
     22          1           0        3.994266   -1.546770    0.511302
     23          1           0        4.693643   -0.171284   -0.351042
     24          6           0        1.584555   -0.932198   -0.245616
     25          1           0        1.815012   -1.975141   -0.043147
     26          6           0        0.167065   -0.648289   -0.645619
     27          1           0       -0.185348   -1.437829   -1.314703
     28          1           0        0.088872    0.283855   -1.206536
 ---------------------------------------------------------------------

 The electronic state is 1-A.
 Alpha  occ. eigenvalues --  -11.23020 -11.22460 -11.21868 -11.21730 -11.21712
 Alpha  occ. eigenvalues --  -11.21539 -11.21506 -11.21436 -11.21417 -11.21348
 Alpha  occ. eigenvalues --   -1.10821  -1.08492  -1.01823  -0.98143  -0.93838
 Alpha  occ. eigenvalues --   -0.91939  -0.86963  -0.82855  -0.70494  -0.69519
 Alpha  occ. eigenvalues --   -0.64988  -0.61512  -0.60591  -0.58878  -0.58366
 Alpha  occ. eigenvalues --   -0.56774  -0.55298  -0.54966  -0.53295  -0.52261
 Alpha  occ. eigenvalues --   -0.51859  -0.51173  -0.50832  -0.49581  -0.48519
 Alpha  occ. eigenvalues --   -0.46073  -0.44624  -0.33371  -0.31514
 Alpha virt. eigenvalues --    0.18142   0.19779   0.22152   0.24486   0.25192
 Alpha virt. eigenvalues --    0.27439   0.28535   0.28922   0.30318   0.30811
 Alpha virt. eigenvalues --    0.31477   0.32261   0.33202   0.33794   0.34383

 Mulliken charges:
               1
     1  C   -0.236021
     2  H    0.125346
     3  H    0.115272
     4  C    0.018322
     5  C   -0.341505
     6  H    0.114461
     7  H    0.117844
     8  H    0.117792
     9  C   -0.154256
    10  H    0.115801
    11  C   -0.355567
    12  H    0.120829
    13  H    0.116140
    14  H    0.119588
    15  C   -0.350727
    16  H    0.121058
    17  H    0.120474
    18  H    0.119352
    19  C    0.027221
    20  C   -0.342631
    21  H    0.115672
    22  H    0.119222
    23  H    0.116356
    24  C   -0.163542
    25  H    0.116803
    26  C   -0.235486
    27  H    0.118380
    28  H    0.123802
 Sum of Mulliken charges =  -0.00000

 Dipole moment (field-independent basis, Debye):
    X=              0.3027    Y=              0.1253    Z=              0.0460  Tot=              0.3308
 Quadrupole moment (field-independent basis, Debye-Ang):
   XX=            -64.3024   YY=            -63.2901   ZZ=            -67.3956
   XY=              0.7521   XZ=              1.2367   YZ=             -0.3487

 Normal termination of Gaussian 16 at Fri Sep 17 17:19:20 2021.
