 Gaussian 16, Revision A.03,
 Gaussian 16:  EM64L-G16RevA.03 25-Dec-2016

 ---------------------
 #p opt mp2/6-31g(d,p)
 ---------------------

 -------------------------------------------------
 Conformer number 341. Energy MM = 23.287 kcal/mol
 -------------------------------------------------
 Symbolic Z-matrix:
 Charge =  0 Multiplicity = 1

 SCF Done:  E(RHF) =  -389.155298300     A.U. after   12 cycles
 E2 =    -0.1416662062D+01 EUMP2 =    -0.39057196036220D+03
 SCF Done:  E(RHF) =  -389.157061677     A.U. after   10 cycles
 E2 =    -0.1416312409D+01 EUMP2 =    -0.39057337408564D+03
 SCF Done:  E(RHF) =  -389.157054673     A.U. after    9 cycles
 E2 =    -0.1416426595D+01 EUMP2 =    -0.39057348126743D+03
 SCF Done:  E(RHF) =  -389.156932803     A.U. after    9 cycles
 E2 =    -0.1416576375D+01 EUMP2 =    -0.39057350917829D+03
 SCF Done:  E(RHF) =  -389.156869216     A.U. after    9 cycles
 E2 =    -0.1416657090D+01 EUMP2 =    -0.39057352630566D+03
 SCF Done:  E(RHF) =  -389.156836672     A.U. after    9 cycles
 E2 =    -0.1416698068D+01 EUMP2 =    -0.39057353473976D+03
 SCF Done:  E(RHF) =  -389.156861043     A.U. after    8 cycles
 E2 =    -0.1416680607D+01 EUMP2 =    -0.39057354164998D+03
 SCF Done:  E(RHF) =  -389.156909347     A.U. after    8 cycles
 E2 =    -0.1416639432D+01 EUMP2 =    -0.39057354877970D+03
 SCF Done:  E(RHF) =  -389.156922998     A.U. after    8 cycles
 E2 =    -0.1416628271D+01 EUMP2 =    -0.39057355126873D+03
 SCF Done:  E(RHF) =  -389.156921371     A.U. after    8 cycles
 E2 =    -0.1416630730D+01 EUMP2 =    -0.39057355210145D+03
 SCF Done:  E(RHF) =  -389.156908983     A.U. after    8 cycles
 E2 =    -0.1416643562D+01 EUMP2 =    -0.39057355254513D+03
 SCF Done:  E(RHF) =  -389.156899833     A.U. after    7 cycles
 E2 =    -0.1416652849D+01 EUMP2 =    -0.39057355268227D+03
 SCF Done:  E(RHF) =  -389.156891714     A.U. after    7 cycles
 E2 =    -0.1416661096D+01 EUMP2 =    -0.39057355281037D+03
 SCF Done:  E(RHF) =  -389.156885248     A.U. after    8 cycles
 E2 =    -0.1416667640D+01 EUMP2 =    -0.39057355288764D+03
 SCF Done:  E(RHF) =  -389.156884811     A.U. after    7 cycles
 E2 =    -0.1416668098D+01 EUMP2 =    -0.39057355290899D+03
 SCF Done:  E(RHF) =  -389.156884233     A.U. after    7 cycles
 E2 =    -0.1416668689D+01 EUMP2 =    -0.39057355292216D+03
 SCF Done:  E(RHF) =  -389.156883424     A.U. after    7 cycles
 E2 =    -0.1416669509D+01 EUMP2 =    -0.39057355293298D+03
 SCF Done:  E(RHF) =  -389.156881484     A.U. after    7 cycles
 E2 =    -0.1416671461D+01 EUMP2 =    -0.39057355294544D+03
 SCF Done:  E(RHF) =  -389.156879192     A.U. after    7 cycles
 E2 =    -0.1416673762D+01 EUMP2 =    -0.39057355295450D+03
 Optimization completed.
    -- Stationary point found.

                         Standard orientation:
 ---------------------------------------------------------------------
 Center     Atomic      Atomic             Coordinates (Angstroms)
 Number     Number       Type             X           Y           Z
 ---------------------------------------------------------------------
      1          6           0        0.735170   -0.049077    0.599758
      2          1           0        0.223412    0.624745    1.292495
      3          1           0        0.858054   -0.995633    1.128937
      4          6           0        2.067655    0.543249    0.215791
      5          6           0        2.104155    2.045368    0.133362
      6          1           0        1.333941    2.419912   -0.544721
      7          1           0        3.069528    2.403681   -0.221845
      8          1           0        1.910791    2.492462    1.110899
      9          6           0        3.153235   -0.192401   -0.087703
     10          1           0        4.055792    0.338638   -0.377516
     11          6           0        3.263930   -1.686752   -0.074225
     12          1           0        4.039618   -2.014395    0.620466
     13          1           0        2.331808   -2.169073    0.210544
     14          1           0        3.542748   -2.060855   -1.061008
     15          6           0       -2.813786    1.324571   -0.266412
     16          1           0       -3.545442    1.527252   -1.051703
     17          1           0       -3.190157    1.794764    0.644565
     18          1           0       -1.881714    1.815018   -0.535188
     19          6           0       -2.660161   -0.156651   -0.058484
     20          6           0       -3.916377   -0.864528    0.368678
     21          1           0       -4.708400   -0.730893   -0.371681
     22          1           0       -4.291655   -0.457678    1.310392
     23          1           0       -3.748901   -1.932405    0.500317
     24          6           0       -1.510453   -0.834983   -0.233758
     25          1           0       -1.524740   -1.902886   -0.030091
     26          6           0       -0.175905   -0.271954   -0.622748
     27          1           0        0.327652   -0.961525   -1.305226
     28          1           0       -0.287105    0.667821   -1.165185
 ---------------------------------------------------------------------

 The electronic state is 1-A.
 Alpha  occ. eigenvalues --  -11.23028 -11.22456 -11.21863 -11.21726 -11.21721
 Alpha  occ. eigenvalues --  -11.21541 -11.21497 -11.21449 -11.21393 -11.21358
 Alpha  occ. eigenvalues --   -1.10803  -1.08495  -1.01828  -0.98138  -0.93839
 Alpha  occ. eigenvalues --   -0.91936  -0.86954  -0.82861  -0.70567  -0.69489
 Alpha  occ. eigenvalues --   -0.64754  -0.61539  -0.60720  -0.58828  -0.58414
 Alpha  occ. eigenvalues --   -0.56814  -0.55405  -0.54979  -0.53298  -0.52217
 Alpha  occ. eigenvalues --   -0.51714  -0.51214  -0.50653  -0.50166  -0.47383
 Alpha  occ. eigenvalues --   -0.46917  -0.44458  -0.33328  -0.31563
 Alpha virt. eigenvalues --    0.18100   0.19932   0.22053   0.24536   0.24955
 Alpha virt. eigenvalues --    0.27424   0.28601   0.28877   0.30353   0.30694
 Alpha virt. eigenvalues --    0.31966   0.32601   0.32969   0.33726   0.34466

 Mulliken charges:
               1
     1  C   -0.235696
     2  H    0.118365
     3  H    0.121814
     4  C    0.017883
     5  C   -0.340845
     6  H    0.111985
     7  H    0.118112
     8  H    0.118156
     9  C   -0.153908
    10  H    0.115552
    11  C   -0.353585
    12  H    0.120250
    13  H    0.115581
    14  H    0.120162
    15  C   -0.348771
    16  H    0.120971
    17  H    0.119572
    18  H    0.118676
    19  C    0.027041
    20  C   -0.342746
    21  H    0.116299
    22  H    0.115688
    23  H    0.119226
    24  C   -0.163245
    25  H    0.116321
    26  C   -0.234395
    27  H    0.123405
    28  H    0.118132
 Sum of Mulliken charges =  -0.00000

 Dipole moment (field-independent basis, Debye):
    X=             -0.3626    Y=              0.1699    Z=              0.0498  Tot=              0.4035
 Quadrupole moment (field-independent basis, Debye-Ang):
   XX=            -63.7582   YY=            -63.7112   ZZ=            -67.3994
   XY=             -1.0617   XZ=             -1.2177   YZ=             -0.3674

 Normal termination of Gaussian 16 at Fri Sep 17 16:19:10 2021.
