 Gaussian 16, Revision A.03,
 Gaussian 16:  EM64L-G16RevA.03 25-Dec-2016

 ---------------------
 #p opt mp2/6-31g(d,p)
 ---------------------

 --------------------------------------------------
 Conformer number 3819. Energy MM = 23.287 kcal/mol
 --------------------------------------------------
 Symbolic Z-matrix:
 Charge =  0 Multiplicity = 1

 SCF Done:  E(RHF) =  -389.155298934     A.U. after   12 cycles
 E2 =    -0.1416661277D+01 EUMP2 =    -0.39057196021109D+03
 SCF Done:  E(RHF) =  -389.157061817     A.U. after   10 cycles
 E2 =    -0.1416312261D+01 EUMP2 =    -0.39057337407848D+03
 SCF Done:  E(RHF) =  -389.157054775     A.U. after    9 cycles
 E2 =    -0.1416426509D+01 EUMP2 =    -0.39057348128364D+03
 SCF Done:  E(RHF) =  -389.156932797     A.U. after    9 cycles
 E2 =    -0.1416576421D+01 EUMP2 =    -0.39057350921764D+03
 SCF Done:  E(RHF) =  -389.156869396     A.U. after    9 cycles
 E2 =    -0.1416656921D+01 EUMP2 =    -0.39057352631692D+03
 SCF Done:  E(RHF) =  -389.156836903     A.U. after    9 cycles
 E2 =    -0.1416697858D+01 EUMP2 =    -0.39057353476032D+03
 SCF Done:  E(RHF) =  -389.156861361     A.U. after    8 cycles
 E2 =    -0.1416680315D+01 EUMP2 =    -0.39057354167570D+03
 SCF Done:  E(RHF) =  -389.156909583     A.U. after    8 cycles
 E2 =    -0.1416639214D+01 EUMP2 =    -0.39057354879627D+03
 SCF Done:  E(RHF) =  -389.156923085     A.U. after    8 cycles
 E2 =    -0.1416628186D+01 EUMP2 =    -0.39057355127048D+03
 SCF Done:  E(RHF) =  -389.156921398     A.U. after    8 cycles
 E2 =    -0.1416630704D+01 EUMP2 =    -0.39057355210269D+03
 SCF Done:  E(RHF) =  -389.156909091     A.U. after    8 cycles
 E2 =    -0.1416643452D+01 EUMP2 =    -0.39057355254280D+03
 SCF Done:  E(RHF) =  -389.156899935     A.U. after    7 cycles
 E2 =    -0.1416652745D+01 EUMP2 =    -0.39057355268033D+03
 SCF Done:  E(RHF) =  -389.156891782     A.U. after    7 cycles
 E2 =    -0.1416661026D+01 EUMP2 =    -0.39057355280896D+03
 SCF Done:  E(RHF) =  -389.156885269     A.U. after    8 cycles
 E2 =    -0.1416667618D+01 EUMP2 =    -0.39057355288688D+03
 SCF Done:  E(RHF) =  -389.156884814     A.U. after    7 cycles
 E2 =    -0.1416668094D+01 EUMP2 =    -0.39057355290846D+03
 SCF Done:  E(RHF) =  -389.156884242     A.U. after    7 cycles
 E2 =    -0.1416668680D+01 EUMP2 =    -0.39057355292182D+03
 SCF Done:  E(RHF) =  -389.156883441     A.U. after    7 cycles
 E2 =    -0.1416669492D+01 EUMP2 =    -0.39057355293272D+03
 SCF Done:  E(RHF) =  -389.156881510     A.U. after    7 cycles
 E2 =    -0.1416671435D+01 EUMP2 =    -0.39057355294533D+03
 SCF Done:  E(RHF) =  -389.156879206     A.U. after    7 cycles
 E2 =    -0.1416673748D+01 EUMP2 =    -0.39057355295447D+03
 Optimization completed.
    -- Stationary point found.

                         Standard orientation:
 ---------------------------------------------------------------------
 Center     Atomic      Atomic             Coordinates (Angstroms)
 Number     Number       Type             X           Y           Z
 ---------------------------------------------------------------------
      1          6           0        0.735171   -0.049077    0.599760
      2          1           0        0.858056   -0.995634    1.128938
      3          1           0        0.223415    0.624745    1.292498
      4          6           0        2.067656    0.543249    0.215792
      5          6           0        2.104157    2.045368    0.133365
      6          1           0        3.069528    2.403681   -0.221845
      7          1           0        1.910796    2.492461    1.110903
      8          1           0        1.333940    2.419913   -0.544715
      9          6           0        3.153235   -0.192401   -0.087705
     10          1           0        4.055793    0.338638   -0.377518
     11          6           0        3.263930   -1.686752   -0.074230
     12          1           0        4.039620   -2.014397    0.620458
     13          1           0        3.542745   -2.060854   -1.061013
     14          1           0        2.331808   -2.169073    0.210542
     15          6           0       -3.916378   -0.864528    0.368678
     16          1           0       -4.291658   -0.457675    1.310390
     17          1           0       -4.708400   -0.730898   -0.371683
     18          1           0       -3.748900   -1.932405    0.500322
     19          6           0       -2.660162   -0.156651   -0.058483
     20          6           0       -2.813789    1.324570   -0.266419
     21          1           0       -1.881717    1.815019   -0.535192
     22          1           0       -3.190165    1.794766    0.644556
     23          1           0       -3.545443    1.527247   -1.051713
     24          6           0       -1.510453   -0.834982   -0.233754
     25          1           0       -1.524739   -1.902884   -0.030082
     26          6           0       -0.175905   -0.271953   -0.622745
     27          1           0       -0.287105    0.667822   -1.165181
     28          1           0        0.327651   -0.961524   -1.305224
 ---------------------------------------------------------------------

 The electronic state is 1-A.
 Alpha  occ. eigenvalues --  -11.23028 -11.22456 -11.21863 -11.21726 -11.21721
 Alpha  occ. eigenvalues --  -11.21541 -11.21497 -11.21449 -11.21393 -11.21358
 Alpha  occ. eigenvalues --   -1.10803  -1.08495  -1.01828  -0.98138  -0.93839
 Alpha  occ. eigenvalues --   -0.91936  -0.86954  -0.82861  -0.70567  -0.69489
 Alpha  occ. eigenvalues --   -0.64754  -0.61539  -0.60720  -0.58828  -0.58414
 Alpha  occ. eigenvalues --   -0.56814  -0.55405  -0.54979  -0.53298  -0.52217
 Alpha  occ. eigenvalues --   -0.51714  -0.51214  -0.50653  -0.50166  -0.47383
 Alpha  occ. eigenvalues --   -0.46917  -0.44458  -0.33328  -0.31563
 Alpha virt. eigenvalues --    0.18100   0.19932   0.22053   0.24536   0.24955
 Alpha virt. eigenvalues --    0.27424   0.28601   0.28877   0.30353   0.30694
 Alpha virt. eigenvalues --    0.31966   0.32601   0.32969   0.33726   0.34466

 Mulliken charges:
               1
     1  C   -0.235696
     2  H    0.121814
     3  H    0.118365
     4  C    0.017883
     5  C   -0.340845
     6  H    0.118112
     7  H    0.118156
     8  H    0.111985
     9  C   -0.153908
    10  H    0.115552
    11  C   -0.353585
    12  H    0.120250
    13  H    0.120163
    14  H    0.115581
    15  C   -0.342746
    16  H    0.115688
    17  H    0.116299
    18  H    0.119226
    19  C    0.027041
    20  C   -0.348771
    21  H    0.118676
    22  H    0.119572
    23  H    0.120971
    24  C   -0.163245
    25  H    0.116321
    26  C   -0.234395
    27  H    0.118132
    28  H    0.123405
 Sum of Mulliken charges =  -0.00000

 Dipole moment (field-independent basis, Debye):
    X=             -0.3626    Y=              0.1699    Z=              0.0498  Tot=              0.4035
 Quadrupole moment (field-independent basis, Debye-Ang):
   XX=            -63.7582   YY=            -63.7112   ZZ=            -67.3994
   XY=             -1.0617   XZ=             -1.2177   YZ=             -0.3674

 Normal termination of Gaussian 16 at Fri Sep 17 17:12:54 2021.
