 Gaussian 16, Revision A.03,
 Gaussian 16:  EM64L-G16RevA.03 25-Dec-2016

 ---------------------
 #p opt mp2/6-31g(d,p)
 ---------------------

 --------------------------------------------------
 Conformer number 2005. Energy MM = 23.242 kcal/mol
 --------------------------------------------------
 Symbolic Z-matrix:
 Charge =  0 Multiplicity = 1

 SCF Done:  E(RHF) =  -389.155207679     A.U. after   13 cycles
 E2 =    -0.1416942912D+01 EUMP2 =    -0.39057215059059D+03
 SCF Done:  E(RHF) =  -389.157042769     A.U. after   10 cycles
 E2 =    -0.1416584974D+01 EUMP2 =    -0.39057362774304D+03
 SCF Done:  E(RHF) =  -389.157029400     A.U. after   10 cycles
 E2 =    -0.1416744826D+01 EUMP2 =    -0.39057377422583D+03
 SCF Done:  E(RHF) =  -389.156867728     A.U. after   10 cycles
 E2 =    -0.1416945961D+01 EUMP2 =    -0.39057381368901D+03
 SCF Done:  E(RHF) =  -389.156787678     A.U. after    9 cycles
 E2 =    -0.1417044063D+01 EUMP2 =    -0.39057383174139D+03
 SCF Done:  E(RHF) =  -389.156773135     A.U. after    9 cycles
 E2 =    -0.1417073138D+01 EUMP2 =    -0.39057384627331D+03
 SCF Done:  E(RHF) =  -389.156760830     A.U. after    9 cycles
 E2 =    -0.1417092007D+01 EUMP2 =    -0.39057385283726D+03
 SCF Done:  E(RHF) =  -389.156781729     A.U. after    9 cycles
 E2 =    -0.1417079048D+01 EUMP2 =    -0.39057386077768D+03
 SCF Done:  E(RHF) =  -389.156771503     A.U. after    8 cycles
 E2 =    -0.1417092277D+01 EUMP2 =    -0.39057386377961D+03
 SCF Done:  E(RHF) =  -389.156767778     A.U. after    8 cycles
 E2 =    -0.1417096514D+01 EUMP2 =    -0.39057386429135D+03
 SCF Done:  E(RHF) =  -389.156757601     A.U. after    7 cycles
 E2 =    -0.1417106870D+01 EUMP2 =    -0.39057386447072D+03
 SCF Done:  E(RHF) =  -389.156754764     A.U. after    7 cycles
 E2 =    -0.1417109768D+01 EUMP2 =    -0.39057386453152D+03
 SCF Done:  E(RHF) =  -389.156753424     A.U. after    7 cycles
 E2 =    -0.1417111153D+01 EUMP2 =    -0.39057386457623D+03
 Optimization completed.
    -- Stationary point found.

                         Standard orientation:
 ---------------------------------------------------------------------
 Center     Atomic      Atomic             Coordinates (Angstroms)
 Number     Number       Type             X           Y           Z
 ---------------------------------------------------------------------
      1          6           0       -0.771606   -0.568567    0.573565
      2          1           0       -0.434180    0.245286    1.217227
      3          1           0       -0.668083   -1.485498    1.160940
      4          6           0       -2.214025   -0.393329    0.170069
      5          6           0       -2.980764   -1.666245   -0.064977
      6          1           0       -3.988689   -1.465702   -0.426069
      7          1           0       -3.055779   -2.249826    0.855149
      8          1           0       -2.476559   -2.296858   -0.800627
      9          6           0       -2.788609    0.807938   -0.026813
     10          1           0       -3.827905    0.823828   -0.343285
     11          6           0       -2.147313    2.151891    0.141924
     12          1           0       -2.677193    2.747026    0.888116
     13          1           0       -1.106285    2.078476    0.448285
     14          1           0       -2.179308    2.713955   -0.793365
     15          6           0        2.413466    1.449344   -0.261183
     16          1           0        3.100654    1.803969   -1.032669
     17          1           0        2.667183    1.983658    0.656952
     18          1           0        1.404444    1.735287   -0.547286
     19          6           0        2.568196   -0.032332   -0.057323
     20          6           0        3.939277   -0.466989    0.381608
     21          1           0        4.213772    0.006269    1.327064
     22          1           0        4.693641   -0.171268   -0.351043
     23          1           0        3.994272   -1.546765    0.511289
     24          6           0        1.584558   -0.932201   -0.245624
     25          1           0        1.815020   -1.975144   -0.043164
     26          6           0        0.167066   -0.648294   -0.645624
     27          1           0       -0.185349   -1.437838   -1.314701
     28          1           0        0.088872    0.283846   -1.206547
 ---------------------------------------------------------------------

 The electronic state is 1-A.
 Alpha  occ. eigenvalues --  -11.23020 -11.22460 -11.21868 -11.21730 -11.21712
 Alpha  occ. eigenvalues --  -11.21539 -11.21506 -11.21436 -11.21417 -11.21348
 Alpha  occ. eigenvalues --   -1.10821  -1.08492  -1.01823  -0.98143  -0.93838
 Alpha  occ. eigenvalues --   -0.91939  -0.86963  -0.82855  -0.70494  -0.69519
 Alpha  occ. eigenvalues --   -0.64988  -0.61512  -0.60591  -0.58878  -0.58366
 Alpha  occ. eigenvalues --   -0.56774  -0.55298  -0.54966  -0.53295  -0.52261
 Alpha  occ. eigenvalues --   -0.51859  -0.51173  -0.50832  -0.49581  -0.48519
 Alpha  occ. eigenvalues --   -0.46073  -0.44624  -0.33371  -0.31514
 Alpha virt. eigenvalues --    0.18142   0.19779   0.22152   0.24486   0.25192
 Alpha virt. eigenvalues --    0.27439   0.28535   0.28922   0.30318   0.30811
 Alpha virt. eigenvalues --    0.31477   0.32261   0.33202   0.33794   0.34383

 Mulliken charges:
               1
     1  C   -0.236021
     2  H    0.125346
     3  H    0.115272
     4  C    0.018322
     5  C   -0.341505
     6  H    0.117792
     7  H    0.117844
     8  H    0.114461
     9  C   -0.154256
    10  H    0.115801
    11  C   -0.355567
    12  H    0.120830
    13  H    0.116140
    14  H    0.119588
    15  C   -0.350727
    16  H    0.121058
    17  H    0.119352
    18  H    0.120474
    19  C    0.027222
    20  C   -0.342631
    21  H    0.115672
    22  H    0.116356
    23  H    0.119222
    24  C   -0.163543
    25  H    0.116803
    26  C   -0.235486
    27  H    0.118380
    28  H    0.123802
 Sum of Mulliken charges =  -0.00000

 Dipole moment (field-independent basis, Debye):
    X=              0.3027    Y=              0.1253    Z=              0.0460  Tot=              0.3308
 Quadrupole moment (field-independent basis, Debye-Ang):
   XX=            -64.3023   YY=            -63.2901   ZZ=            -67.3956
   XY=              0.7521   XZ=              1.2367   YZ=             -0.3487

 Normal termination of Gaussian 16 at Fri Sep 17 14:53:40 2021.
