 Gaussian 16, Revision A.03,
 Gaussian 16:  EM64L-G16RevA.03 25-Dec-2016

 ---------------------
 #p opt mp2/6-31g(d,p)
 ---------------------

 --------------------------------------------------
 Conformer number 3452. Energy MM = 23.242 kcal/mol
 --------------------------------------------------
 Symbolic Z-matrix:
 Charge =  0 Multiplicity = 1

 SCF Done:  E(RHF) =  -389.155204976     A.U. after   13 cycles
 E2 =    -0.1416944152D+01 EUMP2 =    -0.39057214912777D+03
 SCF Done:  E(RHF) =  -389.157042793     A.U. after   10 cycles
 E2 =    -0.1416584831D+01 EUMP2 =    -0.39057362762441D+03
 SCF Done:  E(RHF) =  -389.157029298     A.U. after   10 cycles
 E2 =    -0.1416744871D+01 EUMP2 =    -0.39057377416898D+03
 SCF Done:  E(RHF) =  -389.156867621     A.U. after   10 cycles
 E2 =    -0.1416946035D+01 EUMP2 =    -0.39057381365588D+03
 SCF Done:  E(RHF) =  -389.156787535     A.U. after    9 cycles
 E2 =    -0.1417044197D+01 EUMP2 =    -0.39057383173165D+03
 SCF Done:  E(RHF) =  -389.156773053     A.U. after    9 cycles
 E2 =    -0.1417073234D+01 EUMP2 =    -0.39057384628678D+03
 SCF Done:  E(RHF) =  -389.156760833     A.U. after    9 cycles
 E2 =    -0.1417092022D+01 EUMP2 =    -0.39057385285430D+03
 SCF Done:  E(RHF) =  -389.156781752     A.U. after    9 cycles
 E2 =    -0.1417079030D+01 EUMP2 =    -0.39057386078200D+03
 SCF Done:  E(RHF) =  -389.156771567     A.U. after    8 cycles
 E2 =    -0.1417092216D+01 EUMP2 =    -0.39057386378255D+03
 SCF Done:  E(RHF) =  -389.156767838     A.U. after    8 cycles
 E2 =    -0.1417096455D+01 EUMP2 =    -0.39057386429297D+03
 SCF Done:  E(RHF) =  -389.156757663     A.U. after    7 cycles
 E2 =    -0.1417106808D+01 EUMP2 =    -0.39057386447150D+03
 SCF Done:  E(RHF) =  -389.156754815     A.U. after    7 cycles
 E2 =    -0.1417109717D+01 EUMP2 =    -0.39057386453203D+03
 SCF Done:  E(RHF) =  -389.156753453     A.U. after    7 cycles
 E2 =    -0.1417111124D+01 EUMP2 =    -0.39057386457636D+03
 Optimization completed.
    -- Stationary point found.

                         Standard orientation:
 ---------------------------------------------------------------------
 Center     Atomic      Atomic             Coordinates (Angstroms)
 Number     Number       Type             X           Y           Z
 ---------------------------------------------------------------------
      1          6           0       -0.771610   -0.568570    0.573566
      2          1           0       -0.434185    0.245280    1.217234
      3          1           0       -0.668089   -1.485504    1.160936
      4          6           0       -2.214027   -0.393329    0.170067
      5          6           0       -2.980768   -1.666243   -0.064983
      6          1           0       -3.988691   -1.465698   -0.426080
      7          1           0       -2.476560   -2.296856   -0.800632
      8          1           0       -3.055788   -2.249825    0.855142
      9          6           0       -2.788609    0.807940   -0.026813
     10          1           0       -3.827904    0.823832   -0.343287
     11          6           0       -2.147311    2.151891    0.141929
     12          1           0       -2.179297    2.713955   -0.793360
     13          1           0       -1.106286    2.078473    0.448299
     14          1           0       -2.677195    2.747028    0.888116
     15          6           0        3.939276   -0.466993    0.381609
     16          1           0        4.693642   -0.171278   -0.351043
     17          1           0        4.213774    0.006268    1.327063
     18          1           0        3.994268   -1.546769    0.511295
     19          6           0        2.568197   -0.032333   -0.057323
     20          6           0        2.413474    1.449343   -0.261190
     21          1           0        2.667193    1.983660    0.656943
     22          1           0        3.100662    1.803962   -1.032678
     23          1           0        1.404453    1.735289   -0.547294
     24          6           0        1.584556   -0.932199   -0.245619
     25          1           0        1.815015   -1.975142   -0.043155
     26          6           0        0.167065   -0.648290   -0.645621
     27          1           0       -0.185348   -1.437831   -1.314703
     28          1           0        0.088872    0.283853   -1.206539
 ---------------------------------------------------------------------

 The electronic state is 1-A.
 Alpha  occ. eigenvalues --  -11.23020 -11.22460 -11.21868 -11.21730 -11.21712
 Alpha  occ. eigenvalues --  -11.21539 -11.21506 -11.21436 -11.21417 -11.21348
 Alpha  occ. eigenvalues --   -1.10821  -1.08492  -1.01823  -0.98143  -0.93838
 Alpha  occ. eigenvalues --   -0.91939  -0.86963  -0.82855  -0.70494  -0.69519
 Alpha  occ. eigenvalues --   -0.64988  -0.61512  -0.60591  -0.58878  -0.58366
 Alpha  occ. eigenvalues --   -0.56774  -0.55298  -0.54966  -0.53295  -0.52261
 Alpha  occ. eigenvalues --   -0.51859  -0.51173  -0.50832  -0.49581  -0.48519
 Alpha  occ. eigenvalues --   -0.46073  -0.44624  -0.33371  -0.31514
 Alpha virt. eigenvalues --    0.18142   0.19779   0.22152   0.24486   0.25192
 Alpha virt. eigenvalues --    0.27439   0.28535   0.28922   0.30318   0.30811
 Alpha virt. eigenvalues --    0.31477   0.32261   0.33202   0.33794   0.34383

 Mulliken charges:
               1
     1  C   -0.236021
     2  H    0.125346
     3  H    0.115272
     4  C    0.018322
     5  C   -0.341505
     6  H    0.117792
     7  H    0.114461
     8  H    0.117845
     9  C   -0.154256
    10  H    0.115801
    11  C   -0.355567
    12  H    0.119588
    13  H    0.116140
    14  H    0.120830
    15  C   -0.342631
    16  H    0.116356
    17  H    0.115672
    18  H    0.119222
    19  C    0.027221
    20  C   -0.350727
    21  H    0.119352
    22  H    0.121058
    23  H    0.120474
    24  C   -0.163542
    25  H    0.116803
    26  C   -0.235486
    27  H    0.118380
    28  H    0.123802
 Sum of Mulliken charges =  -0.00000

 Dipole moment (field-independent basis, Debye):
    X=              0.3027    Y=              0.1253    Z=              0.0460  Tot=              0.3308
 Quadrupole moment (field-independent basis, Debye-Ang):
   XX=            -64.3024   YY=            -63.2901   ZZ=            -67.3956
   XY=              0.7521   XZ=              1.2367   YZ=             -0.3487

 Normal termination of Gaussian 16 at Fri Sep 17 15:58:03 2021.
