 Gaussian 16, Revision A.03,
 Gaussian 16:  EM64L-G16RevA.03 25-Dec-2016

 ---------------------
 #p opt mp2/6-31g(d,p)
 ---------------------

 --------------------------------------------------
 Conformer number 3577. Energy MM = 23.242 kcal/mol
 --------------------------------------------------
 Symbolic Z-matrix:
 Charge =  0 Multiplicity = 1

 SCF Done:  E(RHF) =  -389.155204822     A.U. after   13 cycles
 E2 =    -0.1416945896D+01 EUMP2 =    -0.39057215071781D+03
 SCF Done:  E(RHF) =  -389.157043141     A.U. after   10 cycles
 E2 =    -0.1416584813D+01 EUMP2 =    -0.39057362795376D+03
 SCF Done:  E(RHF) =  -389.157029582     A.U. after   10 cycles
 E2 =    -0.1416744669D+01 EUMP2 =    -0.39057377425094D+03
 SCF Done:  E(RHF) =  -389.156867708     A.U. after   10 cycles
 E2 =    -0.1416945972D+01 EUMP2 =    -0.39057381368011D+03
 SCF Done:  E(RHF) =  -389.156787526     A.U. after    9 cycles
 E2 =    -0.1417044215D+01 EUMP2 =    -0.39057383174084D+03
 SCF Done:  E(RHF) =  -389.156773008     A.U. after    9 cycles
 E2 =    -0.1417073250D+01 EUMP2 =    -0.39057384625821D+03
 SCF Done:  E(RHF) =  -389.156760639     A.U. after    9 cycles
 E2 =    -0.1417092176D+01 EUMP2 =    -0.39057385281569D+03
 SCF Done:  E(RHF) =  -389.156781753     A.U. after    9 cycles
 E2 =    -0.1417079021D+01 EUMP2 =    -0.39057386077370D+03
 SCF Done:  E(RHF) =  -389.156771560     A.U. after    8 cycles
 E2 =    -0.1417092217D+01 EUMP2 =    -0.39057386377711D+03
 SCF Done:  E(RHF) =  -389.156767754     A.U. after    8 cycles
 E2 =    -0.1417096537D+01 EUMP2 =    -0.39057386429089D+03
 SCF Done:  E(RHF) =  -389.156757564     A.U. after    7 cycles
 E2 =    -0.1417106906D+01 EUMP2 =    -0.39057386447031D+03
 SCF Done:  E(RHF) =  -389.156754742     A.U. after    7 cycles
 E2 =    -0.1417109790D+01 EUMP2 =    -0.39057386453123D+03
 SCF Done:  E(RHF) =  -389.156753407     A.U. after    7 cycles
 E2 =    -0.1417111169D+01 EUMP2 =    -0.39057386457611D+03
 Optimization completed.
    -- Stationary point found.

                         Standard orientation:
 ---------------------------------------------------------------------
 Center     Atomic      Atomic             Coordinates (Angstroms)
 Number     Number       Type             X           Y           Z
 ---------------------------------------------------------------------
      1          6           0       -0.771605   -0.568567    0.573564
      2          1           0       -0.668082   -1.485496    1.160941
      3          1           0       -0.434178    0.245287    1.217225
      4          6           0       -2.214024   -0.393329    0.170069
      5          6           0       -2.980763   -1.666245   -0.064974
      6          1           0       -2.476561   -2.296857   -0.800628
      7          1           0       -3.988691   -1.465702   -0.426062
      8          1           0       -3.055774   -2.249827    0.855151
      9          6           0       -2.788608    0.807938   -0.026813
     10          1           0       -3.827905    0.823827   -0.343284
     11          6           0       -2.147312    2.151891    0.141922
     12          1           0       -1.106283    2.078476    0.448279
     13          1           0       -2.677189    2.747026    0.888116
     14          1           0       -2.179310    2.713956   -0.793367
     15          6           0        2.413462    1.449344   -0.261181
     16          1           0        3.100652    1.803972   -1.032664
     17          1           0        1.404440    1.735285   -0.547287
     18          1           0        2.667175    1.983657    0.656956
     19          6           0        2.568195   -0.032332   -0.057323
     20          6           0        3.939276   -0.466987    0.381608
     21          1           0        3.994274   -1.546763    0.511288
     22          1           0        4.213770    0.006271    1.327064
     23          1           0        4.693641   -0.171264   -0.351043
     24          6           0        1.584558   -0.932202   -0.245625
     25          1           0        1.815022   -1.975145   -0.043167
     26          6           0        0.167066   -0.648296   -0.645625
     27          1           0        0.088872    0.283843   -1.206549
     28          1           0       -0.185349   -1.437841   -1.314701
 ---------------------------------------------------------------------

 The electronic state is 1-A.
 Alpha  occ. eigenvalues --  -11.23020 -11.22460 -11.21868 -11.21729 -11.21712
 Alpha  occ. eigenvalues --  -11.21539 -11.21506 -11.21436 -11.21417 -11.21348
 Alpha  occ. eigenvalues --   -1.10821  -1.08492  -1.01823  -0.98143  -0.93838
 Alpha  occ. eigenvalues --   -0.91939  -0.86963  -0.82855  -0.70494  -0.69519
 Alpha  occ. eigenvalues --   -0.64988  -0.61512  -0.60591  -0.58878  -0.58366
 Alpha  occ. eigenvalues --   -0.56774  -0.55298  -0.54966  -0.53295  -0.52261
 Alpha  occ. eigenvalues --   -0.51859  -0.51173  -0.50832  -0.49581  -0.48519
 Alpha  occ. eigenvalues --   -0.46073  -0.44624  -0.33371  -0.31514
 Alpha virt. eigenvalues --    0.18142   0.19779   0.22152   0.24486   0.25192
 Alpha virt. eigenvalues --    0.27439   0.28535   0.28922   0.30318   0.30811
 Alpha virt. eigenvalues --    0.31477   0.32261   0.33202   0.33794   0.34383

 Mulliken charges:
               1
     1  C   -0.236021
     2  H    0.115272
     3  H    0.125346
     4  C    0.018322
     5  C   -0.341505
     6  H    0.114461
     7  H    0.117792
     8  H    0.117844
     9  C   -0.154256
    10  H    0.115801
    11  C   -0.355567
    12  H    0.116140
    13  H    0.120830
    14  H    0.119588
    15  C   -0.350727
    16  H    0.121058
    17  H    0.120473
    18  H    0.119352
    19  C    0.027222
    20  C   -0.342631
    21  H    0.119222
    22  H    0.115672
    23  H    0.116356
    24  C   -0.163543
    25  H    0.116803
    26  C   -0.235486
    27  H    0.123802
    28  H    0.118380
 Sum of Mulliken charges =  -0.00000

 Dipole moment (field-independent basis, Debye):
    X=              0.3027    Y=              0.1253    Z=              0.0460  Tot=              0.3308
 Quadrupole moment (field-independent basis, Debye-Ang):
   XX=            -64.3023   YY=            -63.2901   ZZ=            -67.3956
   XY=              0.7521   XZ=              1.2367   YZ=             -0.3487

 Normal termination of Gaussian 16 at Fri Sep 17 16:43:44 2021.
