 Gaussian 16, Revision A.03,
 Gaussian 16:  EM64L-G16RevA.03 25-Dec-2016

 ---------------------
 #p opt mp2/6-31g(d,p)
 ---------------------

 --------------------------------------------------
 Conformer number 1352. Energy MM = 23.242 kcal/mol
 --------------------------------------------------
 Symbolic Z-matrix:
 Charge =  0 Multiplicity = 1

 SCF Done:  E(RHF) =  -389.155214016     A.U. after   13 cycles
 E2 =    -0.1416938098D+01 EUMP2 =    -0.39057215211423D+03
 SCF Done:  E(RHF) =  -389.157043144     A.U. after   10 cycles
 E2 =    -0.1416584798D+01 EUMP2 =    -0.39057362794145D+03
 SCF Done:  E(RHF) =  -389.157029129     A.U. after   10 cycles
 E2 =    -0.1416745152D+01 EUMP2 =    -0.39057377428084D+03
 SCF Done:  E(RHF) =  -389.156867636     A.U. after   10 cycles
 E2 =    -0.1416946037D+01 EUMP2 =    -0.39057381367265D+03
 SCF Done:  E(RHF) =  -389.156787460     A.U. after    9 cycles
 E2 =    -0.1417044318D+01 EUMP2 =    -0.39057383177803D+03
 SCF Done:  E(RHF) =  -389.156773052     A.U. after    9 cycles
 E2 =    -0.1417073222D+01 EUMP2 =    -0.39057384627341D+03
 SCF Done:  E(RHF) =  -389.156760792     A.U. after    9 cycles
 E2 =    -0.1417092030D+01 EUMP2 =    -0.39057385282196D+03
 SCF Done:  E(RHF) =  -389.156781836     A.U. after    9 cycles
 E2 =    -0.1417078949D+01 EUMP2 =    -0.39057386078494D+03
 SCF Done:  E(RHF) =  -389.156771631     A.U. after    8 cycles
 E2 =    -0.1417092148D+01 EUMP2 =    -0.39057386377847D+03
 SCF Done:  E(RHF) =  -389.156767826     A.U. after    8 cycles
 E2 =    -0.1417096465D+01 EUMP2 =    -0.39057386429099D+03
 SCF Done:  E(RHF) =  -389.156757602     A.U. after    7 cycles
 E2 =    -0.1417106869D+01 EUMP2 =    -0.39057386447073D+03
 SCF Done:  E(RHF) =  -389.156754779     A.U. after    7 cycles
 E2 =    -0.1417109752D+01 EUMP2 =    -0.39057386453158D+03
 SCF Done:  E(RHF) =  -389.156753434     A.U. after    7 cycles
 E2 =    -0.1417111142D+01 EUMP2 =    -0.39057386457627D+03
 Optimization completed.
    -- Stationary point found.

                         Standard orientation:
 ---------------------------------------------------------------------
 Center     Atomic      Atomic             Coordinates (Angstroms)
 Number     Number       Type             X           Y           Z
 ---------------------------------------------------------------------
      1          6           0       -0.771607   -0.568568    0.573565
      2          1           0       -0.434181    0.245285    1.217228
      3          1           0       -0.668085   -1.485499    1.160940
      4          6           0       -2.214025   -0.393329    0.170068
      5          6           0       -2.980764   -1.666245   -0.064980
      6          1           0       -3.055781   -2.249826    0.855145
      7          1           0       -2.476558   -2.296857   -0.800631
      8          1           0       -3.988689   -1.465701   -0.426074
      9          6           0       -2.788609    0.807938   -0.026812
     10          1           0       -3.827905    0.823828   -0.343285
     11          6           0       -2.147314    2.151891    0.141927
     12          1           0       -1.106288    2.078476    0.448293
     13          1           0       -2.179305    2.713955   -0.793363
     14          1           0       -2.677197    2.747027    0.888116
     15          6           0        3.939276   -0.466988    0.381611
     16          1           0        3.994271   -1.546764    0.511296
     17          1           0        4.213771    0.006273    1.327065
     18          1           0        4.693642   -0.171270   -0.351041
     19          6           0        2.568196   -0.032332   -0.057323
     20          6           0        2.413468    1.449344   -0.261189
     21          1           0        1.404446    1.735286   -0.547292
     22          1           0        3.100655    1.803965   -1.032677
     23          1           0        2.667186    1.983661    0.656944
     24          6           0        1.584558   -0.932201   -0.245621
     25          1           0        1.815019   -1.975143   -0.043157
     26          6           0        0.167067   -0.648294   -0.645623
     27          1           0        0.088872    0.283846   -1.206545
     28          1           0       -0.185348   -1.437839   -1.314701
 ---------------------------------------------------------------------

 The electronic state is 1-A.
 Alpha  occ. eigenvalues --  -11.23020 -11.22460 -11.21868 -11.21730 -11.21712
 Alpha  occ. eigenvalues --  -11.21539 -11.21506 -11.21436 -11.21417 -11.21348
 Alpha  occ. eigenvalues --   -1.10821  -1.08492  -1.01823  -0.98143  -0.93838
 Alpha  occ. eigenvalues --   -0.91939  -0.86963  -0.82855  -0.70494  -0.69519
 Alpha  occ. eigenvalues --   -0.64988  -0.61512  -0.60591  -0.58878  -0.58366
 Alpha  occ. eigenvalues --   -0.56774  -0.55298  -0.54966  -0.53295  -0.52261
 Alpha  occ. eigenvalues --   -0.51859  -0.51173  -0.50832  -0.49581  -0.48519
 Alpha  occ. eigenvalues --   -0.46073  -0.44624  -0.33371  -0.31514
 Alpha virt. eigenvalues --    0.18142   0.19779   0.22152   0.24486   0.25192
 Alpha virt. eigenvalues --    0.27439   0.28535   0.28922   0.30318   0.30811
 Alpha virt. eigenvalues --    0.31477   0.32261   0.33202   0.33794   0.34383

 Mulliken charges:
               1
     1  C   -0.236021
     2  H    0.125346
     3  H    0.115272
     4  C    0.018322
     5  C   -0.341505
     6  H    0.117844
     7  H    0.114461
     8  H    0.117792
     9  C   -0.154256
    10  H    0.115801
    11  C   -0.355567
    12  H    0.116140
    13  H    0.119588
    14  H    0.120830
    15  C   -0.342631
    16  H    0.119222
    17  H    0.115672
    18  H    0.116356
    19  C    0.027222
    20  C   -0.350727
    21  H    0.120474
    22  H    0.121058
    23  H    0.119352
    24  C   -0.163543
    25  H    0.116803
    26  C   -0.235486
    27  H    0.123802
    28  H    0.118380
 Sum of Mulliken charges =  -0.00000

 Dipole moment (field-independent basis, Debye):
    X=              0.3027    Y=              0.1253    Z=              0.0460  Tot=              0.3308
 Quadrupole moment (field-independent basis, Debye-Ang):
   XX=            -64.3024   YY=            -63.2901   ZZ=            -67.3956
   XY=              0.7521   XZ=              1.2367   YZ=             -0.3487

 Normal termination of Gaussian 16 at Fri Sep 17 14:22:13 2021.
