 Gaussian 16, Revision A.03,
 Gaussian 16:  EM64L-G16RevA.03 25-Dec-2016

 ---------------------
 #p opt mp2/6-31g(d,p)
 ---------------------

 --------------------------------------------------
 Conformer number 3918. Energy MM = 23.242 kcal/mol
 --------------------------------------------------
 Symbolic Z-matrix:
 Charge =  0 Multiplicity = 1

 SCF Done:  E(RHF) =  -389.155210666     A.U. after   13 cycles
 E2 =    -0.1416939380D+01 EUMP2 =    -0.39057215004611D+03
 SCF Done:  E(RHF) =  -389.157043105     A.U. after   10 cycles
 E2 =    -0.1416584535D+01 EUMP2 =    -0.39057362763990D+03
 SCF Done:  E(RHF) =  -389.157029160     A.U. after   10 cycles
 E2 =    -0.1416745010D+01 EUMP2 =    -0.39057377416954D+03
 SCF Done:  E(RHF) =  -389.156867483     A.U. after   10 cycles
 E2 =    -0.1416946189D+01 EUMP2 =    -0.39057381367182D+03
 SCF Done:  E(RHF) =  -389.156787665     A.U. after    9 cycles
 E2 =    -0.1417044058D+01 EUMP2 =    -0.39057383172256D+03
 SCF Done:  E(RHF) =  -389.156773330     A.U. after    9 cycles
 E2 =    -0.1417072964D+01 EUMP2 =    -0.39057384629433D+03
 SCF Done:  E(RHF) =  -389.156761096     A.U. after    9 cycles
 E2 =    -0.1417091759D+01 EUMP2 =    -0.39057385285527D+03
 SCF Done:  E(RHF) =  -389.156781848     A.U. after    9 cycles
 E2 =    -0.1417078932D+01 EUMP2 =    -0.39057386078076D+03
 SCF Done:  E(RHF) =  -389.156771492     A.U. after    8 cycles
 E2 =    -0.1417092293D+01 EUMP2 =    -0.39057386378476D+03
 SCF Done:  E(RHF) =  -389.156767801     A.U. after    8 cycles
 E2 =    -0.1417096493D+01 EUMP2 =    -0.39057386429371D+03
 SCF Done:  E(RHF) =  -389.156757661     A.U. after    7 cycles
 E2 =    -0.1417106810D+01 EUMP2 =    -0.39057386447157D+03
 SCF Done:  E(RHF) =  -389.156754816     A.U. after    7 cycles
 E2 =    -0.1417109716D+01 EUMP2 =    -0.39057386453206D+03
 SCF Done:  E(RHF) =  -389.156753457     A.U. after    7 cycles
 E2 =    -0.1417111120D+01 EUMP2 =    -0.39057386457640D+03
 Optimization completed.
    -- Stationary point found.

                         Standard orientation:
 ---------------------------------------------------------------------
 Center     Atomic      Atomic             Coordinates (Angstroms)
 Number     Number       Type             X           Y           Z
 ---------------------------------------------------------------------
      1          6           0        0.771610   -0.568570    0.573566
      2          1           0        0.434185    0.245280    1.217234
      3          1           0        0.668089   -1.485504    1.160936
      4          6           0        2.214027   -0.393329    0.170067
      5          6           0        2.980767   -1.666243   -0.064984
      6          1           0        3.988690   -1.465698   -0.426082
      7          1           0        2.476559   -2.296856   -0.800632
      8          1           0        3.055789   -2.249825    0.855141
      9          6           0        2.788610    0.807940   -0.026812
     10          1           0        3.827905    0.823831   -0.343287
     11          6           0        2.147312    2.151891    0.141930
     12          1           0        2.179299    2.713956   -0.793359
     13          1           0        1.106287    2.078474    0.448299
     14          1           0        2.677196    2.747027    0.888118
     15          6           0       -3.939276   -0.466993    0.381610
     16          1           0       -4.693642   -0.171279   -0.351042
     17          1           0       -4.213773    0.006269    1.327064
     18          1           0       -3.994268   -1.546769    0.511298
     19          6           0       -2.568198   -0.032332   -0.057323
     20          6           0       -2.413474    1.449343   -0.261191
     21          1           0       -2.667195    1.983661    0.656940
     22          1           0       -3.100663    1.803960   -1.032681
     23          1           0       -1.404453    1.735289   -0.547295
     24          6           0       -1.584556   -0.932199   -0.245618
     25          1           0       -1.815014   -1.975142   -0.043153
     26          6           0       -0.167065   -0.648290   -0.645621
     27          1           0        0.185348   -1.437831   -1.314703
     28          1           0       -0.088872    0.283853   -1.206539
 ---------------------------------------------------------------------

 The electronic state is 1-A.
 Alpha  occ. eigenvalues --  -11.23020 -11.22460 -11.21868 -11.21730 -11.21712
 Alpha  occ. eigenvalues --  -11.21539 -11.21506 -11.21436 -11.21417 -11.21348
 Alpha  occ. eigenvalues --   -1.10821  -1.08492  -1.01823  -0.98143  -0.93838
 Alpha  occ. eigenvalues --   -0.91939  -0.86963  -0.82855  -0.70494  -0.69519
 Alpha  occ. eigenvalues --   -0.64988  -0.61512  -0.60591  -0.58878  -0.58366
 Alpha  occ. eigenvalues --   -0.56774  -0.55298  -0.54966  -0.53295  -0.52261
 Alpha  occ. eigenvalues --   -0.51859  -0.51173  -0.50832  -0.49581  -0.48519
 Alpha  occ. eigenvalues --   -0.46073  -0.44624  -0.33371  -0.31514
 Alpha virt. eigenvalues --    0.18142   0.19779   0.22152   0.24486   0.25192
 Alpha virt. eigenvalues --    0.27439   0.28535   0.28922   0.30318   0.30811
 Alpha virt. eigenvalues --    0.31477   0.32261   0.33202   0.33794   0.34383

 Mulliken charges:
               1
     1  C   -0.236021
     2  H    0.125346
     3  H    0.115272
     4  C    0.018322
     5  C   -0.341505
     6  H    0.117792
     7  H    0.114461
     8  H    0.117845
     9  C   -0.154256
    10  H    0.115801
    11  C   -0.355567
    12  H    0.119588
    13  H    0.116140
    14  H    0.120830
    15  C   -0.342631
    16  H    0.116356
    17  H    0.115672
    18  H    0.119222
    19  C    0.027221
    20  C   -0.350727
    21  H    0.119352
    22  H    0.121058
    23  H    0.120474
    24  C   -0.163542
    25  H    0.116803
    26  C   -0.235486
    27  H    0.118380
    28  H    0.123802
 Sum of Mulliken charges =  -0.00000

 Dipole moment (field-independent basis, Debye):
    X=             -0.3027    Y=              0.1253    Z=              0.0460  Tot=              0.3308
 Quadrupole moment (field-independent basis, Debye-Ang):
   XX=            -64.3024   YY=            -63.2901   ZZ=            -67.3956
   XY=             -0.7521   XZ=             -1.2367   YZ=             -0.3487

 Normal termination of Gaussian 16 at Fri Sep 17 16:44:54 2021.
