 Gaussian 16, Revision A.03,
 Gaussian 16:  EM64L-G16RevA.03 25-Dec-2016

 ---------------------
 #p opt mp2/6-31g(d,p)
 ---------------------

 --------------------------------------------------
 Conformer number 3119. Energy MM = 23.287 kcal/mol
 --------------------------------------------------
 Symbolic Z-matrix:
 Charge =  0 Multiplicity = 1

 SCF Done:  E(RHF) =  -389.155299677     A.U. after   12 cycles
 E2 =    -0.1416660800D+01 EUMP2 =    -0.39057196047706D+03
 SCF Done:  E(RHF) =  -389.157061400     A.U. after   10 cycles
 E2 =    -0.1416312634D+01 EUMP2 =    -0.39057337403420D+03
 SCF Done:  E(RHF) =  -389.157054592     A.U. after    9 cycles
 E2 =    -0.1416426682D+01 EUMP2 =    -0.39057348127400D+03
 SCF Done:  E(RHF) =  -389.156932856     A.U. after    9 cycles
 E2 =    -0.1416576319D+01 EUMP2 =    -0.39057350917586D+03
 SCF Done:  E(RHF) =  -389.156869179     A.U. after    9 cycles
 E2 =    -0.1416657144D+01 EUMP2 =    -0.39057352632311D+03
 SCF Done:  E(RHF) =  -389.156836665     A.U. after    9 cycles
 E2 =    -0.1416698105D+01 EUMP2 =    -0.39057353477003D+03
 SCF Done:  E(RHF) =  -389.156861019     A.U. after    8 cycles
 E2 =    -0.1416680653D+01 EUMP2 =    -0.39057354167189D+03
 SCF Done:  E(RHF) =  -389.156909338     A.U. after    8 cycles
 E2 =    -0.1416639450D+01 EUMP2 =    -0.39057354878775D+03
 SCF Done:  E(RHF) =  -389.156923023     A.U. after    8 cycles
 E2 =    -0.1416628248D+01 EUMP2 =    -0.39057355127127D+03
 SCF Done:  E(RHF) =  -389.156921419     A.U. after    8 cycles
 E2 =    -0.1416630683D+01 EUMP2 =    -0.39057355210179D+03
 SCF Done:  E(RHF) =  -389.156909017     A.U. after    8 cycles
 E2 =    -0.1416643529D+01 EUMP2 =    -0.39057355254545D+03
 SCF Done:  E(RHF) =  -389.156899857     A.U. after    7 cycles
 E2 =    -0.1416652825D+01 EUMP2 =    -0.39057355268232D+03
 SCF Done:  E(RHF) =  -389.156891738     A.U. after    7 cycles
 E2 =    -0.1416661072D+01 EUMP2 =    -0.39057355281002D+03
 SCF Done:  E(RHF) =  -389.156885239     A.U. after    8 cycles
 E2 =    -0.1416667648D+01 EUMP2 =    -0.39057355288739D+03
 SCF Done:  E(RHF) =  -389.156884799     A.U. after    7 cycles
 E2 =    -0.1416668110D+01 EUMP2 =    -0.39057355290887D+03
 SCF Done:  E(RHF) =  -389.156884225     A.U. after    7 cycles
 E2 =    -0.1416668697D+01 EUMP2 =    -0.39057355292211D+03
 SCF Done:  E(RHF) =  -389.156883424     A.U. after    7 cycles
 E2 =    -0.1416669509D+01 EUMP2 =    -0.39057355293292D+03
 SCF Done:  E(RHF) =  -389.156881492     A.U. after    7 cycles
 E2 =    -0.1416671454D+01 EUMP2 =    -0.39057355294541D+03
 SCF Done:  E(RHF) =  -389.156879197     A.U. after    7 cycles
 E2 =    -0.1416673757D+01 EUMP2 =    -0.39057355295449D+03
 Optimization completed.
    -- Stationary point found.

                         Standard orientation:
 ---------------------------------------------------------------------
 Center     Atomic      Atomic             Coordinates (Angstroms)
 Number     Number       Type             X           Y           Z
 ---------------------------------------------------------------------
      1          6           0        0.735170   -0.049077    0.599759
      2          1           0        0.858054   -0.995633    1.128938
      3          1           0        0.223413    0.624746    1.292496
      4          6           0        2.067655    0.543249    0.215792
      5          6           0        2.104156    2.045368    0.133363
      6          1           0        1.910792    2.492462    1.110900
      7          1           0        1.333941    2.419912   -0.544720
      8          1           0        3.069528    2.403681   -0.221845
      9          6           0        3.153235   -0.192401   -0.087704
     10          1           0        4.055792    0.338638   -0.377517
     11          6           0        3.263929   -1.686752   -0.074227
     12          1           0        3.542747   -2.060854   -1.061010
     13          1           0        2.331807   -2.169073    0.210543
     14          1           0        4.039618   -2.014396    0.620463
     15          6           0       -3.916378   -0.864527    0.368678
     16          1           0       -4.708400   -0.730894   -0.371682
     17          1           0       -3.748901   -1.932405    0.500319
     18          1           0       -4.291656   -0.457677    1.310392
     19          6           0       -2.660161   -0.156651   -0.058483
     20          6           0       -2.813787    1.324570   -0.266415
     21          1           0       -3.545441    1.527250   -1.051707
     22          1           0       -1.881714    1.815018   -0.535189
     23          1           0       -3.190160    1.794765    0.644561
     24          6           0       -1.510453   -0.834983   -0.233757
     25          1           0       -1.524740   -1.902886   -0.030087
     26          6           0       -0.175905   -0.271954   -0.622747
     27          1           0        0.327652   -0.961526   -1.305224
     28          1           0       -0.287105    0.667821   -1.165184
 ---------------------------------------------------------------------

 The electronic state is 1-A.
 Alpha  occ. eigenvalues --  -11.23028 -11.22456 -11.21863 -11.21726 -11.21721
 Alpha  occ. eigenvalues --  -11.21541 -11.21497 -11.21449 -11.21393 -11.21358
 Alpha  occ. eigenvalues --   -1.10803  -1.08495  -1.01828  -0.98138  -0.93839
 Alpha  occ. eigenvalues --   -0.91936  -0.86954  -0.82861  -0.70567  -0.69489
 Alpha  occ. eigenvalues --   -0.64754  -0.61539  -0.60720  -0.58828  -0.58414
 Alpha  occ. eigenvalues --   -0.56814  -0.55405  -0.54979  -0.53298  -0.52217
 Alpha  occ. eigenvalues --   -0.51714  -0.51214  -0.50653  -0.50166  -0.47383
 Alpha  occ. eigenvalues --   -0.46917  -0.44458  -0.33328  -0.31563
 Alpha virt. eigenvalues --    0.18100   0.19932   0.22053   0.24536   0.24955
 Alpha virt. eigenvalues --    0.27424   0.28601   0.28877   0.30353   0.30694
 Alpha virt. eigenvalues --    0.31966   0.32601   0.32969   0.33726   0.34466

 Mulliken charges:
               1
     1  C   -0.235696
     2  H    0.121814
     3  H    0.118365
     4  C    0.017883
     5  C   -0.340845
     6  H    0.118156
     7  H    0.111985
     8  H    0.118112
     9  C   -0.153908
    10  H    0.115552
    11  C   -0.353585
    12  H    0.120163
    13  H    0.115581
    14  H    0.120250
    15  C   -0.342746
    16  H    0.116299
    17  H    0.119226
    18  H    0.115688
    19  C    0.027041
    20  C   -0.348771
    21  H    0.120971
    22  H    0.118676
    23  H    0.119572
    24  C   -0.163245
    25  H    0.116321
    26  C   -0.234395
    27  H    0.123405
    28  H    0.118132
 Sum of Mulliken charges =  -0.00000

 Dipole moment (field-independent basis, Debye):
    X=             -0.3626    Y=              0.1699    Z=              0.0498  Tot=              0.4035
 Quadrupole moment (field-independent basis, Debye-Ang):
   XX=            -63.7582   YY=            -63.7112   ZZ=            -67.3994
   XY=             -1.0617   XZ=             -1.2177   YZ=             -0.3674

 Normal termination of Gaussian 16 at Fri Sep 17 16:54:07 2021.
