 Gaussian 16, Revision A.03,
 Gaussian 16:  EM64L-G16RevA.03 25-Dec-2016

 ---------------------
 #p opt mp2/6-31g(d,p)
 ---------------------

 --------------------------------------------------
 Conformer number 3226. Energy MM = 23.287 kcal/mol
 --------------------------------------------------
 Symbolic Z-matrix:
 Charge =  0 Multiplicity = 1

 SCF Done:  E(RHF) =  -389.155298861     A.U. after   12 cycles
 E2 =    -0.1416661373D+01 EUMP2 =    -0.39057196023408D+03
 SCF Done:  E(RHF) =  -389.157061959     A.U. after   10 cycles
 E2 =    -0.1416312225D+01 EUMP2 =    -0.39057337418369D+03
 SCF Done:  E(RHF) =  -389.157054642     A.U. after    9 cycles
 E2 =    -0.1416426633D+01 EUMP2 =    -0.39057348127442D+03
 SCF Done:  E(RHF) =  -389.156932780     A.U. after    9 cycles
 E2 =    -0.1416576391D+01 EUMP2 =    -0.39057350917155D+03
 SCF Done:  E(RHF) =  -389.156869161     A.U. after    9 cycles
 E2 =    -0.1416657155D+01 EUMP2 =    -0.39057352631536D+03
 SCF Done:  E(RHF) =  -389.156836676     A.U. after    9 cycles
 E2 =    -0.1416698102D+01 EUMP2 =    -0.39057353477845D+03
 SCF Done:  E(RHF) =  -389.156861100     A.U. after    8 cycles
 E2 =    -0.1416680584D+01 EUMP2 =    -0.39057354168357D+03
 SCF Done:  E(RHF) =  -389.156909449     A.U. after    8 cycles
 E2 =    -0.1416639348D+01 EUMP2 =    -0.39057354879767D+03
 SCF Done:  E(RHF) =  -389.156923067     A.U. after    8 cycles
 E2 =    -0.1416628209D+01 EUMP2 =    -0.39057355127598D+03
 SCF Done:  E(RHF) =  -389.156921465     A.U. after    8 cycles
 E2 =    -0.1416630637D+01 EUMP2 =    -0.39057355210222D+03
 SCF Done:  E(RHF) =  -389.156909102     A.U. after    8 cycles
 E2 =    -0.1416643442D+01 EUMP2 =    -0.39057355254390D+03
 SCF Done:  E(RHF) =  -389.156899934     A.U. after    7 cycles
 E2 =    -0.1416652747D+01 EUMP2 =    -0.39057355268084D+03
 SCF Done:  E(RHF) =  -389.156891791     A.U. after    7 cycles
 E2 =    -0.1416661018D+01 EUMP2 =    -0.39057355280906D+03
 SCF Done:  E(RHF) =  -389.156885264     A.U. after    8 cycles
 E2 =    -0.1416667623D+01 EUMP2 =    -0.39057355288705D+03
 SCF Done:  E(RHF) =  -389.156884815     A.U. after    7 cycles
 E2 =    -0.1416668094D+01 EUMP2 =    -0.39057355290870D+03
 SCF Done:  E(RHF) =  -389.156884219     A.U. after    7 cycles
 E2 =    -0.1416668703D+01 EUMP2 =    -0.39057355292201D+03
 SCF Done:  E(RHF) =  -389.156883407     A.U. after    7 cycles
 E2 =    -0.1416669526D+01 EUMP2 =    -0.39057355293286D+03
 SCF Done:  E(RHF) =  -389.156881469     A.U. after    7 cycles
 E2 =    -0.1416671476D+01 EUMP2 =    -0.39057355294541D+03
 SCF Done:  E(RHF) =  -389.156879189     A.U. after    7 cycles
 E2 =    -0.1416673765D+01 EUMP2 =    -0.39057355295458D+03
 Optimization completed.
    -- Stationary point found.

                         Standard orientation:
 ---------------------------------------------------------------------
 Center     Atomic      Atomic             Coordinates (Angstroms)
 Number     Number       Type             X           Y           Z
 ---------------------------------------------------------------------
      1          6           0       -0.735169   -0.049077    0.599759
      2          1           0       -0.858054   -0.995632    1.128939
      3          1           0       -0.223412    0.624746    1.292494
      4          6           0       -2.067655    0.543249    0.215791
      5          6           0       -2.104155    2.045368    0.133362
      6          1           0       -1.910790    2.492463    1.110898
      7          1           0       -1.333941    2.419912   -0.544722
      8          1           0       -3.069528    2.403681   -0.221846
      9          6           0       -3.153234   -0.192401   -0.087704
     10          1           0       -4.055792    0.338638   -0.377517
     11          6           0       -3.263929   -1.686752   -0.074225
     12          1           0       -3.542748   -2.060855   -1.061007
     13          1           0       -4.039616   -2.014395    0.620467
     14          1           0       -2.331806   -2.169072    0.210544
     15          6           0        2.813784    1.324571   -0.266413
     16          1           0        3.545440    1.527253   -1.051704
     17          1           0        3.190156    1.794764    0.644565
     18          1           0        1.881711    1.815018   -0.535187
     19          6           0        2.660161   -0.156651   -0.058484
     20          6           0        3.916377   -0.864527    0.368678
     21          1           0        4.708400   -0.730892   -0.371682
     22          1           0        4.291655   -0.457676    1.310392
     23          1           0        3.748902   -1.932404    0.500318
     24          6           0        1.510453   -0.834984   -0.233758
     25          1           0        1.524741   -1.902887   -0.030090
     26          6           0        0.175905   -0.271956   -0.622748
     27          1           0        0.287104    0.667819   -1.165186
     28          1           0       -0.327653   -0.961528   -1.305224
 ---------------------------------------------------------------------

 The electronic state is 1-A.
 Alpha  occ. eigenvalues --  -11.23028 -11.22456 -11.21863 -11.21726 -11.21721
 Alpha  occ. eigenvalues --  -11.21541 -11.21497 -11.21449 -11.21393 -11.21358
 Alpha  occ. eigenvalues --   -1.10803  -1.08495  -1.01828  -0.98138  -0.93839
 Alpha  occ. eigenvalues --   -0.91936  -0.86954  -0.82861  -0.70567  -0.69489
 Alpha  occ. eigenvalues --   -0.64754  -0.61539  -0.60720  -0.58828  -0.58414
 Alpha  occ. eigenvalues --   -0.56814  -0.55405  -0.54979  -0.53298  -0.52217
 Alpha  occ. eigenvalues --   -0.51714  -0.51214  -0.50653  -0.50166  -0.47383
 Alpha  occ. eigenvalues --   -0.46917  -0.44458  -0.33328  -0.31563
 Alpha virt. eigenvalues --    0.18100   0.19932   0.22053   0.24536   0.24955
 Alpha virt. eigenvalues --    0.27424   0.28601   0.28877   0.30353   0.30694
 Alpha virt. eigenvalues --    0.31966   0.32601   0.32969   0.33726   0.34466

 Mulliken charges:
               1
     1  C   -0.235696
     2  H    0.121814
     3  H    0.118365
     4  C    0.017883
     5  C   -0.340845
     6  H    0.118156
     7  H    0.111985
     8  H    0.118112
     9  C   -0.153908
    10  H    0.115552
    11  C   -0.353585
    12  H    0.120162
    13  H    0.120250
    14  H    0.115581
    15  C   -0.348771
    16  H    0.120971
    17  H    0.119572
    18  H    0.118676
    19  C    0.027041
    20  C   -0.342746
    21  H    0.116299
    22  H    0.115688
    23  H    0.119226
    24  C   -0.163245
    25  H    0.116321
    26  C   -0.234395
    27  H    0.118132
    28  H    0.123405
 Sum of Mulliken charges =  -0.00000

 Dipole moment (field-independent basis, Debye):
    X=              0.3626    Y=              0.1699    Z=              0.0498  Tot=              0.4035
 Quadrupole moment (field-independent basis, Debye-Ang):
   XX=            -63.7582   YY=            -63.7112   ZZ=            -67.3994
   XY=              1.0617   XZ=              1.2177   YZ=             -0.3674

 Normal termination of Gaussian 16 at Fri Sep 17 16:55:38 2021.
