 Gaussian 16, Revision A.03,
 Gaussian 16:  EM64L-G16RevA.03 25-Dec-2016

 ---------------------
 #p opt mp2/6-31g(d,p)
 ---------------------

 --------------------------------------------------
 Conformer number 3829. Energy MM = 23.242 kcal/mol
 --------------------------------------------------
 Symbolic Z-matrix:
 Charge =  0 Multiplicity = 1

 SCF Done:  E(RHF) =  -389.155206102     A.U. after   13 cycles
 E2 =    -0.1416945152D+01 EUMP2 =    -0.39057215125344D+03
 SCF Done:  E(RHF) =  -389.157042369     A.U. after   10 cycles
 E2 =    -0.1416585288D+01 EUMP2 =    -0.39057362765754D+03
 SCF Done:  E(RHF) =  -389.157029286     A.U. after   10 cycles
 E2 =    -0.1416744843D+01 EUMP2 =    -0.39057377412986D+03
 SCF Done:  E(RHF) =  -389.156867751     A.U. after   10 cycles
 E2 =    -0.1416945882D+01 EUMP2 =    -0.39057381363372D+03
 SCF Done:  E(RHF) =  -389.156787628     A.U. after    9 cycles
 E2 =    -0.1417044089D+01 EUMP2 =    -0.39057383171696D+03
 SCF Done:  E(RHF) =  -389.156773125     A.U. after    9 cycles
 E2 =    -0.1417073153D+01 EUMP2 =    -0.39057384627752D+03
 SCF Done:  E(RHF) =  -389.156760800     A.U. after    9 cycles
 E2 =    -0.1417092039D+01 EUMP2 =    -0.39057385283918D+03
 SCF Done:  E(RHF) =  -389.156781679     A.U. after    9 cycles
 E2 =    -0.1417079086D+01 EUMP2 =    -0.39057386076476D+03
 SCF Done:  E(RHF) =  -389.156771457     A.U. after    8 cycles
 E2 =    -0.1417092325D+01 EUMP2 =    -0.39057386378220D+03
 SCF Done:  E(RHF) =  -389.156767818     A.U. after    8 cycles
 E2 =    -0.1417096474D+01 EUMP2 =    -0.39057386429183D+03
 SCF Done:  E(RHF) =  -389.156757634     A.U. after    7 cycles
 E2 =    -0.1417106837D+01 EUMP2 =    -0.39057386447120D+03
 SCF Done:  E(RHF) =  -389.156754792     A.U. after    7 cycles
 E2 =    -0.1417109740D+01 EUMP2 =    -0.39057386453192D+03
 SCF Done:  E(RHF) =  -389.156753431     A.U. after    7 cycles
 E2 =    -0.1417111146D+01 EUMP2 =    -0.39057386457637D+03
 Optimization completed.
    -- Stationary point found.

                         Standard orientation:
 ---------------------------------------------------------------------
 Center     Atomic      Atomic             Coordinates (Angstroms)
 Number     Number       Type             X           Y           Z
 ---------------------------------------------------------------------
      1          6           0       -0.771607   -0.568568    0.573565
      2          1           0       -0.434181    0.245285    1.217229
      3          1           0       -0.668085   -1.485499    1.160939
      4          6           0       -2.214025   -0.393329    0.170068
      5          6           0       -2.980764   -1.666245   -0.064979
      6          1           0       -3.988687   -1.465702   -0.426078
      7          1           0       -2.476555   -2.296860   -0.800625
      8          1           0       -3.055785   -2.249823    0.855148
      9          6           0       -2.788610    0.807938   -0.026813
     10          1           0       -3.827905    0.823828   -0.343286
     11          6           0       -2.147314    2.151891    0.141926
     12          1           0       -2.179301    2.713953   -0.793365
     13          1           0       -2.677199    2.747029    0.888112
     14          1           0       -1.106289    2.078476    0.448296
     15          6           0        2.413468    1.449344   -0.261186
     16          1           0        2.667191    1.983660    0.656945
     17          1           0        3.100651    1.803965   -1.032678
     18          1           0        1.404445    1.735287   -0.547284
     19          6           0        2.568196   -0.032332   -0.057323
     20          6           0        3.939277   -0.466989    0.381609
     21          1           0        3.994272   -1.546765    0.511291
     22          1           0        4.213771    0.006269    1.327065
     23          1           0        4.693642   -0.171269   -0.351041
     24          6           0        1.584558   -0.932200   -0.245622
     25          1           0        1.815019   -1.975143   -0.043160
     26          6           0        0.167066   -0.648293   -0.645623
     27          1           0       -0.185348   -1.437837   -1.314702
     28          1           0        0.088873    0.283847   -1.206545
 ---------------------------------------------------------------------

 The electronic state is 1-A.
 Alpha  occ. eigenvalues --  -11.23020 -11.22460 -11.21868 -11.21730 -11.21712
 Alpha  occ. eigenvalues --  -11.21539 -11.21506 -11.21436 -11.21417 -11.21348
 Alpha  occ. eigenvalues --   -1.10821  -1.08492  -1.01823  -0.98143  -0.93838
 Alpha  occ. eigenvalues --   -0.91939  -0.86963  -0.82855  -0.70494  -0.69519
 Alpha  occ. eigenvalues --   -0.64988  -0.61512  -0.60591  -0.58878  -0.58366
 Alpha  occ. eigenvalues --   -0.56774  -0.55298  -0.54966  -0.53295  -0.52261
 Alpha  occ. eigenvalues --   -0.51859  -0.51173  -0.50832  -0.49581  -0.48519
 Alpha  occ. eigenvalues --   -0.46073  -0.44624  -0.33371  -0.31514
 Alpha virt. eigenvalues --    0.18142   0.19779   0.22152   0.24486   0.25192
 Alpha virt. eigenvalues --    0.27439   0.28535   0.28922   0.30318   0.30811
 Alpha virt. eigenvalues --    0.31477   0.32261   0.33202   0.33794   0.34383

 Mulliken charges:
               1
     1  C   -0.236021
     2  H    0.125346
     3  H    0.115272
     4  C    0.018322
     5  C   -0.341505
     6  H    0.117792
     7  H    0.114461
     8  H    0.117845
     9  C   -0.154256
    10  H    0.115801
    11  C   -0.355567
    12  H    0.119588
    13  H    0.120829
    14  H    0.116140
    15  C   -0.350727
    16  H    0.119352
    17  H    0.121058
    18  H    0.120474
    19  C    0.027222
    20  C   -0.342631
    21  H    0.119222
    22  H    0.115672
    23  H    0.116356
    24  C   -0.163543
    25  H    0.116803
    26  C   -0.235486
    27  H    0.118380
    28  H    0.123802
 Sum of Mulliken charges =  -0.00000

 Dipole moment (field-independent basis, Debye):
    X=              0.3027    Y=              0.1253    Z=              0.0460  Tot=              0.3308
 Quadrupole moment (field-independent basis, Debye-Ang):
   XX=            -64.3023   YY=            -63.2901   ZZ=            -67.3956
   XY=              0.7521   XZ=              1.2367   YZ=             -0.3487

 Normal termination of Gaussian 16 at Fri Sep 17 16:43:31 2021.
