 Gaussian 16, Revision A.03,
 Gaussian 16:  EM64L-G16RevA.03 25-Dec-2016

 ---------------------
 #p opt mp2/6-31g(d,p)
 ---------------------

 --------------------------------------------------
 Conformer number 1572. Energy MM = 23.287 kcal/mol
 --------------------------------------------------
 Symbolic Z-matrix:
 Charge =  0 Multiplicity = 1

 SCF Done:  E(RHF) =  -389.155305589     A.U. after   12 cycles
 E2 =    -0.1416653500D+01 EUMP2 =    -0.39057195908939D+03
 SCF Done:  E(RHF) =  -389.157062063     A.U. after   10 cycles
 E2 =    -0.1416311982D+01 EUMP2 =    -0.39057337404521D+03
 SCF Done:  E(RHF) =  -389.157054419     A.U. after    9 cycles
 E2 =    -0.1416426899D+01 EUMP2 =    -0.39057348131810D+03
 SCF Done:  E(RHF) =  -389.156932580     A.U. after    9 cycles
 E2 =    -0.1416576624D+01 EUMP2 =    -0.39057350920420D+03
 SCF Done:  E(RHF) =  -389.156869194     A.U. after    9 cycles
 E2 =    -0.1416657114D+01 EUMP2 =    -0.39057352630818D+03
 SCF Done:  E(RHF) =  -389.156836715     A.U. after    9 cycles
 E2 =    -0.1416698048D+01 EUMP2 =    -0.39057353476235D+03
 SCF Done:  E(RHF) =  -389.156861251     A.U. after    8 cycles
 E2 =    -0.1416680422D+01 EUMP2 =    -0.39057354167300D+03
 SCF Done:  E(RHF) =  -389.156909532     A.U. after    8 cycles
 E2 =    -0.1416639271D+01 EUMP2 =    -0.39057354880263D+03
 SCF Done:  E(RHF) =  -389.156923005     A.U. after    8 cycles
 E2 =    -0.1416628268D+01 EUMP2 =    -0.39057355127246D+03
 SCF Done:  E(RHF) =  -389.156921314     A.U. after    8 cycles
 E2 =    -0.1416630790D+01 EUMP2 =    -0.39057355210423D+03
 SCF Done:  E(RHF) =  -389.156909012     A.U. after    8 cycles
 E2 =    -0.1416643532D+01 EUMP2 =    -0.39057355254440D+03
 SCF Done:  E(RHF) =  -389.156899865     A.U. after    7 cycles
 E2 =    -0.1416652817D+01 EUMP2 =    -0.39057355268167D+03
 SCF Done:  E(RHF) =  -389.156891735     A.U. after    7 cycles
 E2 =    -0.1416661074D+01 EUMP2 =    -0.39057355280978D+03
 SCF Done:  E(RHF) =  -389.156885234     A.U. after    8 cycles
 E2 =    -0.1416667654D+01 EUMP2 =    -0.39057355288735D+03
 SCF Done:  E(RHF) =  -389.156884784     A.U. after    7 cycles
 E2 =    -0.1416668125D+01 EUMP2 =    -0.39057355290883D+03
 SCF Done:  E(RHF) =  -389.156884229     A.U. after    7 cycles
 E2 =    -0.1416668693D+01 EUMP2 =    -0.39057355292207D+03
 SCF Done:  E(RHF) =  -389.156883440     A.U. after    7 cycles
 E2 =    -0.1416669493D+01 EUMP2 =    -0.39057355293286D+03
 SCF Done:  E(RHF) =  -389.156881517     A.U. after    7 cycles
 E2 =    -0.1416671428D+01 EUMP2 =    -0.39057355294533D+03
 SCF Done:  E(RHF) =  -389.156879208     A.U. after    7 cycles
 E2 =    -0.1416673747D+01 EUMP2 =    -0.39057355295441D+03
 Optimization completed.
    -- Stationary point found.

                         Standard orientation:
 ---------------------------------------------------------------------
 Center     Atomic      Atomic             Coordinates (Angstroms)
 Number     Number       Type             X           Y           Z
 ---------------------------------------------------------------------
      1          6           0       -0.735172   -0.049077    0.599762
      2          1           0       -0.858057   -0.995633    1.128940
      3          1           0       -0.223417    0.624746    1.292500
      4          6           0       -2.067657    0.543249    0.215793
      5          6           0       -2.104159    2.045368    0.133367
      6          1           0       -3.069531    2.403681   -0.221842
      7          1           0       -1.333943    2.419914   -0.544713
      8          1           0       -1.910797    2.492460    1.110906
      9          6           0       -3.153235   -0.192401   -0.087707
     10          1           0       -4.055793    0.338637   -0.377520
     11          6           0       -3.263928   -1.686753   -0.074233
     12          1           0       -2.331807   -2.169073    0.210541
     13          1           0       -4.039620   -2.014399    0.620452
     14          1           0       -3.542740   -2.060853   -1.061018
     15          6           0        3.916378   -0.864528    0.368679
     16          1           0        4.291659   -0.457672    1.310390
     17          1           0        3.748899   -1.932404    0.500327
     18          1           0        4.708399   -0.730900   -0.371683
     19          6           0        2.660162   -0.156651   -0.058483
     20          6           0        2.813791    1.324569   -0.266424
     21          1           0        3.190170    1.794767    0.644548
     22          1           0        3.545443    1.527243   -1.051721
     23          1           0        1.881719    1.815018   -0.535196
     24          6           0        1.510452   -0.834982   -0.233751
     25          1           0        1.524737   -1.902883   -0.030075
     26          6           0        0.175905   -0.271953   -0.622742
     27          1           0       -0.327651   -0.961524   -1.305222
     28          1           0        0.287105    0.667822   -1.165179
 ---------------------------------------------------------------------

 The electronic state is 1-A.
 Alpha  occ. eigenvalues --  -11.23028 -11.22456 -11.21863 -11.21726 -11.21721
 Alpha  occ. eigenvalues --  -11.21541 -11.21497 -11.21449 -11.21393 -11.21358
 Alpha  occ. eigenvalues --   -1.10803  -1.08495  -1.01828  -0.98138  -0.93839
 Alpha  occ. eigenvalues --   -0.91936  -0.86954  -0.82861  -0.70567  -0.69489
 Alpha  occ. eigenvalues --   -0.64754  -0.61539  -0.60720  -0.58828  -0.58414
 Alpha  occ. eigenvalues --   -0.56814  -0.55405  -0.54979  -0.53298  -0.52217
 Alpha  occ. eigenvalues --   -0.51714  -0.51214  -0.50653  -0.50166  -0.47383
 Alpha  occ. eigenvalues --   -0.46917  -0.44458  -0.33328  -0.31563
 Alpha virt. eigenvalues --    0.18100   0.19932   0.22053   0.24536   0.24955
 Alpha virt. eigenvalues --    0.27424   0.28601   0.28877   0.30353   0.30694
 Alpha virt. eigenvalues --    0.31966   0.32601   0.32969   0.33726   0.34466

 Mulliken charges:
               1
     1  C   -0.235696
     2  H    0.121814
     3  H    0.118365
     4  C    0.017883
     5  C   -0.340845
     6  H    0.118112
     7  H    0.111985
     8  H    0.118156
     9  C   -0.153908
    10  H    0.115552
    11  C   -0.353585
    12  H    0.115581
    13  H    0.120250
    14  H    0.120163
    15  C   -0.342746
    16  H    0.115688
    17  H    0.119226
    18  H    0.116299
    19  C    0.027041
    20  C   -0.348771
    21  H    0.119572
    22  H    0.120971
    23  H    0.118676
    24  C   -0.163245
    25  H    0.116321
    26  C   -0.234395
    27  H    0.123405
    28  H    0.118132
 Sum of Mulliken charges =  -0.00000

 Dipole moment (field-independent basis, Debye):
    X=              0.3626    Y=              0.1699    Z=              0.0498  Tot=              0.4035
 Quadrupole moment (field-independent basis, Debye-Ang):
   XX=            -63.7582   YY=            -63.7112   ZZ=            -67.3994
   XY=              1.0617   XZ=              1.2177   YZ=             -0.3674

 Normal termination of Gaussian 16 at Fri Sep 17 15:33:58 2021.
