 Gaussian 16, Revision A.03,
 Gaussian 16:  EM64L-G16RevA.03 25-Dec-2016

 ---------------------
 #p opt mp2/6-31g(d,p)
 ---------------------

 --------------------------------------------------
 Conformer number 2021. Energy MM = 23.287 kcal/mol
 --------------------------------------------------
 Symbolic Z-matrix:
 Charge =  0 Multiplicity = 1

 SCF Done:  E(RHF) =  -389.155298794     A.U. after   12 cycles
 E2 =    -0.1416659154D+01 EUMP2 =    -0.39057195794867D+03
 SCF Done:  E(RHF) =  -389.157062025     A.U. after   10 cycles
 E2 =    -0.1416311903D+01 EUMP2 =    -0.39057337392769D+03
 SCF Done:  E(RHF) =  -389.157054637     A.U. after    9 cycles
 E2 =    -0.1416426645D+01 EUMP2 =    -0.39057348128235D+03
 SCF Done:  E(RHF) =  -389.156932636     A.U. after    9 cycles
 E2 =    -0.1416576580D+01 EUMP2 =    -0.39057350921550D+03
 SCF Done:  E(RHF) =  -389.156869355     A.U. after    9 cycles
 E2 =    -0.1416656950D+01 EUMP2 =    -0.39057352630473D+03
 SCF Done:  E(RHF) =  -389.156836846     A.U. after    9 cycles
 E2 =    -0.1416697916D+01 EUMP2 =    -0.39057353476275D+03
 SCF Done:  E(RHF) =  -389.156861351     A.U. after    8 cycles
 E2 =    -0.1416680329D+01 EUMP2 =    -0.39057354167980D+03
 SCF Done:  E(RHF) =  -389.156909554     A.U. after    8 cycles
 E2 =    -0.1416639246D+01 EUMP2 =    -0.39057354879936D+03
 SCF Done:  E(RHF) =  -389.156922995     A.U. after    8 cycles
 E2 =    -0.1416628275D+01 EUMP2 =    -0.39057355127027D+03
 SCF Done:  E(RHF) =  -389.156921313     A.U. after    8 cycles
 E2 =    -0.1416630791D+01 EUMP2 =    -0.39057355210353D+03
 SCF Done:  E(RHF) =  -389.156908962     A.U. after    8 cycles
 E2 =    -0.1416643584D+01 EUMP2 =    -0.39057355254532D+03
 SCF Done:  E(RHF) =  -389.156899835     A.U. after    7 cycles
 E2 =    -0.1416652847D+01 EUMP2 =    -0.39057355268220D+03
 SCF Done:  E(RHF) =  -389.156891715     A.U. after    7 cycles
 E2 =    -0.1416661095D+01 EUMP2 =    -0.39057355281041D+03
 SCF Done:  E(RHF) =  -389.156885252     A.U. after    8 cycles
 E2 =    -0.1416667635D+01 EUMP2 =    -0.39057355288772D+03
 SCF Done:  E(RHF) =  -389.156884808     A.U. after    7 cycles
 E2 =    -0.1416668101D+01 EUMP2 =    -0.39057355290905D+03
 SCF Done:  E(RHF) =  -389.156884219     A.U. after    7 cycles
 E2 =    -0.1416668703D+01 EUMP2 =    -0.39057355292223D+03
 SCF Done:  E(RHF) =  -389.156883403     A.U. after    7 cycles
 E2 =    -0.1416669530D+01 EUMP2 =    -0.39057355293303D+03
 SCF Done:  E(RHF) =  -389.156881463     A.U. after    7 cycles
 E2 =    -0.1416671482D+01 EUMP2 =    -0.39057355294549D+03
 SCF Done:  E(RHF) =  -389.156879181     A.U. after    7 cycles
 E2 =    -0.1416673773D+01 EUMP2 =    -0.39057355295454D+03
 Optimization completed.
    -- Stationary point found.

                         Standard orientation:
 ---------------------------------------------------------------------
 Center     Atomic      Atomic             Coordinates (Angstroms)
 Number     Number       Type             X           Y           Z
 ---------------------------------------------------------------------
      1          6           0        0.735169   -0.049078    0.599757
      2          1           0        0.858053   -0.995634    1.128935
      3          1           0        0.223411    0.624744    1.292494
      4          6           0        2.067654    0.543249    0.215791
      5          6           0        2.104154    2.045368    0.133361
      6          1           0        1.910790    2.492462    1.110898
      7          1           0        3.069526    2.403681   -0.221848
      8          1           0        1.333938    2.419911   -0.544722
      9          6           0        3.153235   -0.192400   -0.087703
     10          1           0        4.055792    0.338639   -0.377515
     11          6           0        3.263931   -1.686752   -0.074223
     12          1           0        3.542750   -2.060855   -1.061005
     13          1           0        4.039619   -2.014393    0.620469
     14          1           0        2.331809   -2.169072    0.210546
     15          6           0       -3.916377   -0.864528    0.368677
     16          1           0       -4.708400   -0.730893   -0.371682
     17          1           0       -3.748901   -1.932406    0.500316
     18          1           0       -4.291654   -0.457679    1.310392
     19          6           0       -2.660161   -0.156651   -0.058483
     20          6           0       -2.813785    1.324571   -0.266409
     21          1           0       -3.545442    1.527254   -1.051698
     22          1           0       -3.190153    1.794763    0.644570
     23          1           0       -1.881712    1.815018   -0.535186
     24          6           0       -1.510453   -0.834984   -0.233760
     25          1           0       -1.524741   -1.902887   -0.030094
     26          6           0       -0.175906   -0.271954   -0.622749
     27          1           0        0.327652   -0.961525   -1.305228
     28          1           0       -0.287105    0.667821   -1.165186
 ---------------------------------------------------------------------

 The electronic state is 1-A.
 Alpha  occ. eigenvalues --  -11.23028 -11.22456 -11.21863 -11.21726 -11.21721
 Alpha  occ. eigenvalues --  -11.21541 -11.21497 -11.21449 -11.21393 -11.21358
 Alpha  occ. eigenvalues --   -1.10803  -1.08495  -1.01828  -0.98138  -0.93839
 Alpha  occ. eigenvalues --   -0.91936  -0.86954  -0.82861  -0.70567  -0.69489
 Alpha  occ. eigenvalues --   -0.64754  -0.61539  -0.60720  -0.58828  -0.58414
 Alpha  occ. eigenvalues --   -0.56814  -0.55405  -0.54979  -0.53298  -0.52217
 Alpha  occ. eigenvalues --   -0.51714  -0.51214  -0.50653  -0.50166  -0.47383
 Alpha  occ. eigenvalues --   -0.46917  -0.44458  -0.33328  -0.31563
 Alpha virt. eigenvalues --    0.18100   0.19932   0.22053   0.24536   0.24955
 Alpha virt. eigenvalues --    0.27424   0.28601   0.28877   0.30353   0.30694
 Alpha virt. eigenvalues --    0.31966   0.32601   0.32969   0.33726   0.34466

 Mulliken charges:
               1
     1  C   -0.235696
     2  H    0.121814
     3  H    0.118365
     4  C    0.017883
     5  C   -0.340845
     6  H    0.118156
     7  H    0.118112
     8  H    0.111985
     9  C   -0.153908
    10  H    0.115552
    11  C   -0.353585
    12  H    0.120163
    13  H    0.120250
    14  H    0.115581
    15  C   -0.342746
    16  H    0.116299
    17  H    0.119226
    18  H    0.115688
    19  C    0.027041
    20  C   -0.348771
    21  H    0.120971
    22  H    0.119572
    23  H    0.118676
    24  C   -0.163245
    25  H    0.116321
    26  C   -0.234395
    27  H    0.123405
    28  H    0.118132
 Sum of Mulliken charges =  -0.00000

 Dipole moment (field-independent basis, Debye):
    X=             -0.3626    Y=              0.1699    Z=              0.0498  Tot=              0.4035
 Quadrupole moment (field-independent basis, Debye-Ang):
   XX=            -63.7582   YY=            -63.7112   ZZ=            -67.3994
   XY=             -1.0617   XZ=             -1.2177   YZ=             -0.3674

 Normal termination of Gaussian 16 at Fri Sep 17 15:24:55 2021.
