 Gaussian 16, Revision A.03,
 Gaussian 16:  EM64L-G16RevA.03 25-Dec-2016

 ---------------------
 #p opt mp2/6-31g(d,p)
 ---------------------

 --------------------------------------------------
 Conformer number 2976. Energy MM = 23.287 kcal/mol
 --------------------------------------------------
 Symbolic Z-matrix:
 Charge =  0 Multiplicity = 1

 SCF Done:  E(RHF) =  -389.155291107     A.U. after   12 cycles
 E2 =    -0.1416666272D+01 EUMP2 =    -0.39057195737888D+03
 SCF Done:  E(RHF) =  -389.157061428     A.U. after   10 cycles
 E2 =    -0.1416312588D+01 EUMP2 =    -0.39057337401604D+03
 SCF Done:  E(RHF) =  -389.157054773     A.U. after    9 cycles
 E2 =    -0.1416426488D+01 EUMP2 =    -0.39057348126148D+03
 SCF Done:  E(RHF) =  -389.156932977     A.U. after    9 cycles
 E2 =    -0.1416576203D+01 EUMP2 =    -0.39057350918035D+03
 SCF Done:  E(RHF) =  -389.156869315     A.U. after    9 cycles
 E2 =    -0.1416657003D+01 EUMP2 =    -0.39057352631843D+03
 SCF Done:  E(RHF) =  -389.156836816     A.U. after    9 cycles
 E2 =    -0.1416697945D+01 EUMP2 =    -0.39057353476175D+03
 SCF Done:  E(RHF) =  -389.156861038     A.U. after    8 cycles
 E2 =    -0.1416680619D+01 EUMP2 =    -0.39057354165664D+03
 SCF Done:  E(RHF) =  -389.156909317     A.U. after    8 cycles
 E2 =    -0.1416639457D+01 EUMP2 =    -0.39057354877452D+03
 SCF Done:  E(RHF) =  -389.156923051     A.U. after    8 cycles
 E2 =    -0.1416628217D+01 EUMP2 =    -0.39057355126877D+03
 SCF Done:  E(RHF) =  -389.156921475     A.U. after    8 cycles
 E2 =    -0.1416630624D+01 EUMP2 =    -0.39057355209908D+03
 SCF Done:  E(RHF) =  -389.156909064     A.U. after    8 cycles
 E2 =    -0.1416643480D+01 EUMP2 =    -0.39057355254406D+03
 SCF Done:  E(RHF) =  -389.156899906     A.U. after    7 cycles
 E2 =    -0.1416652775D+01 EUMP2 =    -0.39057355268116D+03
 SCF Done:  E(RHF) =  -389.156891773     A.U. after    7 cycles
 E2 =    -0.1416661037D+01 EUMP2 =    -0.39057355280948D+03
 SCF Done:  E(RHF) =  -389.156885262     A.U. after    8 cycles
 E2 =    -0.1416667625D+01 EUMP2 =    -0.39057355288718D+03
 SCF Done:  E(RHF) =  -389.156884824     A.U. after    7 cycles
 E2 =    -0.1416668084D+01 EUMP2 =    -0.39057355290873D+03
 SCF Done:  E(RHF) =  -389.156884235     A.U. after    7 cycles
 E2 =    -0.1416668687D+01 EUMP2 =    -0.39057355292198D+03
 SCF Done:  E(RHF) =  -389.156883425     A.U. after    7 cycles
 E2 =    -0.1416669508D+01 EUMP2 =    -0.39057355293284D+03
 SCF Done:  E(RHF) =  -389.156881485     A.U. after    7 cycles
 E2 =    -0.1416671461D+01 EUMP2 =    -0.39057355294539D+03
 SCF Done:  E(RHF) =  -389.156879198     A.U. after    7 cycles
 E2 =    -0.1416673757D+01 EUMP2 =    -0.39057355295452D+03
 Optimization completed.
    -- Stationary point found.

                         Standard orientation:
 ---------------------------------------------------------------------
 Center     Atomic      Atomic             Coordinates (Angstroms)
 Number     Number       Type             X           Y           Z
 ---------------------------------------------------------------------
      1          6           0       -0.735170   -0.049079    0.599757
      2          1           0       -0.223412    0.624743    1.292495
      3          1           0       -0.858054   -0.995636    1.128934
      4          6           0       -2.067654    0.543249    0.215791
      5          6           0       -2.104153    2.045368    0.133361
      6          1           0       -1.910792    2.492462    1.110899
      7          1           0       -3.069524    2.403682   -0.221850
      8          1           0       -1.333935    2.419911   -0.544719
      9          6           0       -3.153235   -0.192399   -0.087703
     10          1           0       -4.055793    0.338641   -0.377515
     11          6           0       -3.263933   -1.686751   -0.074224
     12          1           0       -3.542753   -2.060853   -1.061006
     13          1           0       -4.039621   -2.014392    0.620468
     14          1           0       -2.331811   -2.169073    0.210545
     15          6           0        3.916378   -0.864529    0.368677
     16          1           0        4.291654   -0.457681    1.310392
     17          1           0        4.708401   -0.730892   -0.371682
     18          1           0        3.748901   -1.932406    0.500314
     19          6           0        2.660161   -0.156651   -0.058483
     20          6           0        2.813786    1.324571   -0.266409
     21          1           0        3.190157    1.794762    0.644569
     22          1           0        1.881713    1.815019   -0.535184
     23          1           0        3.545442    1.527254   -1.051700
     24          6           0        1.510453   -0.834984   -0.233760
     25          1           0        1.524741   -1.902887   -0.030094
     26          6           0        0.175906   -0.271954   -0.622749
     27          1           0        0.287106    0.667822   -1.165185
     28          1           0       -0.327652   -0.961524   -1.305228
 ---------------------------------------------------------------------

 The electronic state is 1-A.
 Alpha  occ. eigenvalues --  -11.23028 -11.22456 -11.21863 -11.21726 -11.21721
 Alpha  occ. eigenvalues --  -11.21541 -11.21497 -11.21449 -11.21393 -11.21358
 Alpha  occ. eigenvalues --   -1.10803  -1.08495  -1.01828  -0.98138  -0.93839
 Alpha  occ. eigenvalues --   -0.91936  -0.86954  -0.82861  -0.70567  -0.69489
 Alpha  occ. eigenvalues --   -0.64754  -0.61539  -0.60720  -0.58828  -0.58414
 Alpha  occ. eigenvalues --   -0.56814  -0.55405  -0.54979  -0.53298  -0.52217
 Alpha  occ. eigenvalues --   -0.51714  -0.51214  -0.50653  -0.50166  -0.47383
 Alpha  occ. eigenvalues --   -0.46917  -0.44458  -0.33328  -0.31563
 Alpha virt. eigenvalues --    0.18100   0.19932   0.22053   0.24536   0.24955
 Alpha virt. eigenvalues --    0.27424   0.28601   0.28877   0.30353   0.30694
 Alpha virt. eigenvalues --    0.31966   0.32601   0.32969   0.33726   0.34466

 Mulliken charges:
               1
     1  C   -0.235696
     2  H    0.118365
     3  H    0.121814
     4  C    0.017883
     5  C   -0.340845
     6  H    0.118156
     7  H    0.118112
     8  H    0.111985
     9  C   -0.153908
    10  H    0.115552
    11  C   -0.353585
    12  H    0.120163
    13  H    0.120250
    14  H    0.115581
    15  C   -0.342746
    16  H    0.115688
    17  H    0.116299
    18  H    0.119226
    19  C    0.027041
    20  C   -0.348771
    21  H    0.119572
    22  H    0.118676
    23  H    0.120971
    24  C   -0.163245
    25  H    0.116321
    26  C   -0.234395
    27  H    0.118132
    28  H    0.123405
 Sum of Mulliken charges =  -0.00000

 Dipole moment (field-independent basis, Debye):
    X=              0.3626    Y=              0.1699    Z=              0.0498  Tot=              0.4035
 Quadrupole moment (field-independent basis, Debye-Ang):
   XX=            -63.7582   YY=            -63.7112   ZZ=            -67.3994
   XY=              1.0617   XZ=              1.2177   YZ=             -0.3674

 Normal termination of Gaussian 16 at Fri Sep 17 16:45:06 2021.
