 Gaussian 16, Revision A.03,
 Gaussian 16:  EM64L-G16RevA.03 25-Dec-2016

 ---------------------
 #p opt mp2/6-31g(d,p)
 ---------------------

 --------------------------------------------------
 Conformer number 2203. Energy MM = 23.287 kcal/mol
 --------------------------------------------------
 Symbolic Z-matrix:
 Charge =  0 Multiplicity = 1

 SCF Done:  E(RHF) =  -389.155296771     A.U. after   12 cycles
 E2 =    -0.1416663039D+01 EUMP2 =    -0.39057195981020D+03
 SCF Done:  E(RHF) =  -389.157061298     A.U. after   10 cycles
 E2 =    -0.1416312673D+01 EUMP2 =    -0.39057337397181D+03
 SCF Done:  E(RHF) =  -389.157054738     A.U. after    9 cycles
 E2 =    -0.1416426517D+01 EUMP2 =    -0.39057348125571D+03
 SCF Done:  E(RHF) =  -389.156932943     A.U. after    9 cycles
 E2 =    -0.1416576260D+01 EUMP2 =    -0.39057350920242D+03
 SCF Done:  E(RHF) =  -389.156869339     A.U. after    9 cycles
 E2 =    -0.1416656985D+01 EUMP2 =    -0.39057352632434D+03
 SCF Done:  E(RHF) =  -389.156836823     A.U. after    9 cycles
 E2 =    -0.1416697943D+01 EUMP2 =    -0.39057353476571D+03
 SCF Done:  E(RHF) =  -389.156861047     A.U. after    8 cycles
 E2 =    -0.1416680612D+01 EUMP2 =    -0.39057354165922D+03
 SCF Done:  E(RHF) =  -389.156909234     A.U. after    8 cycles
 E2 =    -0.1416639536D+01 EUMP2 =    -0.39057354876957D+03
 SCF Done:  E(RHF) =  -389.156922950     A.U. after    8 cycles
 E2 =    -0.1416628316D+01 EUMP2 =    -0.39057355126612D+03
 SCF Done:  E(RHF) =  -389.156921357     A.U. after    8 cycles
 E2 =    -0.1416630744D+01 EUMP2 =    -0.39057355210033D+03
 SCF Done:  E(RHF) =  -389.156909497     A.U. after    8 cycles
 E2 =    -0.1416643039D+01 EUMP2 =    -0.39057355253607D+03
 SCF Done:  E(RHF) =  -389.156900087     A.U. after    7 cycles
 E2 =    -0.1416652592D+01 EUMP2 =    -0.39057355267911D+03
 SCF Done:  E(RHF) =  -389.156891911     A.U. after    7 cycles
 E2 =    -0.1416660896D+01 EUMP2 =    -0.39057355280715D+03
 SCF Done:  E(RHF) =  -389.156885330     A.U. after    8 cycles
 E2 =    -0.1416667557D+01 EUMP2 =    -0.39057355288644D+03
 SCF Done:  E(RHF) =  -389.156884777     A.U. after    7 cycles
 E2 =    -0.1416668132D+01 EUMP2 =    -0.39057355290876D+03
 SCF Done:  E(RHF) =  -389.156884238     A.U. after    7 cycles
 E2 =    -0.1416668685D+01 EUMP2 =    -0.39057355292215D+03
 SCF Done:  E(RHF) =  -389.156883465     A.U. after    7 cycles
 E2 =    -0.1416669468D+01 EUMP2 =    -0.39057355293261D+03
 SCF Done:  E(RHF) =  -389.156881563     A.U. after    7 cycles
 E2 =    -0.1416671382D+01 EUMP2 =    -0.39057355294500D+03
 SCF Done:  E(RHF) =  -389.156879272     A.U. after    7 cycles
 E2 =    -0.1416673682D+01 EUMP2 =    -0.39057355295420D+03
 Optimization completed.
    -- Stationary point found.

                         Standard orientation:
 ---------------------------------------------------------------------
 Center     Atomic      Atomic             Coordinates (Angstroms)
 Number     Number       Type             X           Y           Z
 ---------------------------------------------------------------------
      1          6           0        0.735179   -0.049076    0.599772
      2          1           0        0.858065   -0.995632    1.128949
      3          1           0        0.223428    0.624747    1.292513
      4          6           0        2.067663    0.543249    0.215797
      5          6           0        2.104170    2.045368    0.133382
      6          1           0        1.333946    2.419922   -0.544685
      7          1           0        3.069539    2.403679   -0.221836
      8          1           0        1.910822    2.492453    1.110927
      9          6           0        3.153236   -0.192404   -0.087717
     10          1           0        4.055794    0.338634   -0.377532
     11          6           0        3.263925   -1.686756   -0.074255
     12          1           0        2.331805   -2.169074    0.210527
     13          1           0        4.039623   -2.014409    0.620420
     14          1           0        3.542725   -2.060851   -1.061045
     15          6           0       -2.813807    1.324565   -0.266455
     16          1           0       -3.190216    1.794775    0.644499
     17          1           0       -1.881734    1.815020   -0.535212
     18          1           0       -3.545441    1.527216   -1.051774
     19          6           0       -2.660166   -0.156650   -0.058483
     20          6           0       -3.916379   -0.864529    0.368685
     21          1           0       -4.708399   -0.730916   -0.371682
     22          1           0       -4.291667   -0.457662    1.310388
     23          1           0       -3.748893   -1.932402    0.500347
     24          6           0       -1.510450   -0.834975   -0.233731
     25          1           0       -1.524730   -1.902873   -0.030033
     26          6           0       -0.175904   -0.271949   -0.622728
     27          1           0       -0.287106    0.667828   -1.165163
     28          1           0        0.327647   -0.961519   -1.305211
 ---------------------------------------------------------------------

 The electronic state is 1-A.
 Alpha  occ. eigenvalues --  -11.23028 -11.22456 -11.21863 -11.21726 -11.21721
 Alpha  occ. eigenvalues --  -11.21541 -11.21497 -11.21449 -11.21393 -11.21358
 Alpha  occ. eigenvalues --   -1.10803  -1.08495  -1.01828  -0.98138  -0.93839
 Alpha  occ. eigenvalues --   -0.91936  -0.86954  -0.82861  -0.70567  -0.69489
 Alpha  occ. eigenvalues --   -0.64754  -0.61539  -0.60720  -0.58828  -0.58414
 Alpha  occ. eigenvalues --   -0.56814  -0.55405  -0.54979  -0.53298  -0.52217
 Alpha  occ. eigenvalues --   -0.51714  -0.51214  -0.50653  -0.50166  -0.47383
 Alpha  occ. eigenvalues --   -0.46917  -0.44458  -0.33328  -0.31563
 Alpha virt. eigenvalues --    0.18100   0.19932   0.22054   0.24536   0.24955
 Alpha virt. eigenvalues --    0.27424   0.28601   0.28877   0.30353   0.30694
 Alpha virt. eigenvalues --    0.31966   0.32601   0.32969   0.33726   0.34466

 Mulliken charges:
               1
     1  C   -0.235697
     2  H    0.121814
     3  H    0.118365
     4  C    0.017883
     5  C   -0.340845
     6  H    0.111985
     7  H    0.118112
     8  H    0.118157
     9  C   -0.153908
    10  H    0.115552
    11  C   -0.353585
    12  H    0.115581
    13  H    0.120250
    14  H    0.120163
    15  C   -0.348770
    16  H    0.119571
    17  H    0.118676
    18  H    0.120971
    19  C    0.027040
    20  C   -0.342746
    21  H    0.116299
    22  H    0.115688
    23  H    0.119226
    24  C   -0.163244
    25  H    0.116321
    26  C   -0.234394
    27  H    0.118131
    28  H    0.123405
 Sum of Mulliken charges =  -0.00000

 Dipole moment (field-independent basis, Debye):
    X=             -0.3626    Y=              0.1699    Z=              0.0498  Tot=              0.4035
 Quadrupole moment (field-independent basis, Debye-Ang):
   XX=            -63.7582   YY=            -63.7112   ZZ=            -67.3993
   XY=             -1.0617   XZ=             -1.2177   YZ=             -0.3674

 Normal termination of Gaussian 16 at Fri Sep 17 15:23:33 2021.
