 Gaussian 16, Revision A.03,
 Gaussian 16:  EM64L-G16RevA.03 25-Dec-2016

 ---------------------
 #p opt mp2/6-31g(d,p)
 ---------------------

 --------------------------------------------------
 Conformer number 3138. Energy MM = 23.242 kcal/mol
 --------------------------------------------------
 Symbolic Z-matrix:
 Charge =  0 Multiplicity = 1

 SCF Done:  E(RHF) =  -389.155205162     A.U. after   13 cycles
 E2 =    -0.1416944375D+01 EUMP2 =    -0.39057214953699D+03
 SCF Done:  E(RHF) =  -389.157043092     A.U. after   10 cycles
 E2 =    -0.1416584524D+01 EUMP2 =    -0.39057362761638D+03
 SCF Done:  E(RHF) =  -389.157029561     A.U. after   10 cycles
 E2 =    -0.1416744656D+01 EUMP2 =    -0.39057377421650D+03
 SCF Done:  E(RHF) =  -389.156867716     A.U. after   10 cycles
 E2 =    -0.1416945959D+01 EUMP2 =    -0.39057381367527D+03
 SCF Done:  E(RHF) =  -389.156787579     A.U. after    9 cycles
 E2 =    -0.1417044174D+01 EUMP2 =    -0.39057383175356D+03
 SCF Done:  E(RHF) =  -389.156773026     A.U. after    9 cycles
 E2 =    -0.1417073256D+01 EUMP2 =    -0.39057384628179D+03
 SCF Done:  E(RHF) =  -389.156760766     A.U. after    9 cycles
 E2 =    -0.1417092081D+01 EUMP2 =    -0.39057385284665D+03
 SCF Done:  E(RHF) =  -389.156781732     A.U. after    9 cycles
 E2 =    -0.1417079056D+01 EUMP2 =    -0.39057386078841D+03
 SCF Done:  E(RHF) =  -389.156771568     A.U. after    8 cycles
 E2 =    -0.1417092215D+01 EUMP2 =    -0.39057386378375D+03
 SCF Done:  E(RHF) =  -389.156767842     A.U. after    8 cycles
 E2 =    -0.1417096451D+01 EUMP2 =    -0.39057386429328D+03
 SCF Done:  E(RHF) =  -389.156757649     A.U. after    7 cycles
 E2 =    -0.1417106823D+01 EUMP2 =    -0.39057386447178D+03
 SCF Done:  E(RHF) =  -389.156754812     A.U. after    7 cycles
 E2 =    -0.1417109720D+01 EUMP2 =    -0.39057386453214D+03
 SCF Done:  E(RHF) =  -389.156753460     A.U. after    7 cycles
 E2 =    -0.1417111117D+01 EUMP2 =    -0.39057386457644D+03
 Optimization completed.
    -- Stationary point found.

                         Standard orientation:
 ---------------------------------------------------------------------
 Center     Atomic      Atomic             Coordinates (Angstroms)
 Number     Number       Type             X           Y           Z
 ---------------------------------------------------------------------
      1          6           0       -0.771610   -0.568570    0.573566
      2          1           0       -0.434186    0.245279    1.217235
      3          1           0       -0.668090   -1.485505    1.160936
      4          6           0       -2.214028   -0.393329    0.170067
      5          6           0       -2.980768   -1.666243   -0.064984
      6          1           0       -2.476560   -2.296856   -0.800633
      7          1           0       -3.055790   -2.249824    0.855140
      8          1           0       -3.988691   -1.465697   -0.426082
      9          6           0       -2.788610    0.807940   -0.026813
     10          1           0       -3.827905    0.823832   -0.343288
     11          6           0       -2.147311    2.151891    0.141930
     12          1           0       -2.179296    2.713956   -0.793359
     13          1           0       -1.106287    2.078473    0.448301
     14          1           0       -2.677196    2.747028    0.888117
     15          6           0        2.413476    1.449343   -0.261191
     16          1           0        3.100664    1.803960   -1.032681
     17          1           0        2.667198    1.983660    0.656941
     18          1           0        1.404455    1.735290   -0.547294
     19          6           0        2.568198   -0.032333   -0.057323
     20          6           0        3.939277   -0.466994    0.381610
     21          1           0        4.693643   -0.171280   -0.351043
     22          1           0        3.994267   -1.546770    0.511296
     23          1           0        4.213774    0.006267    1.327064
     24          6           0        1.584556   -0.932199   -0.245618
     25          1           0        1.815013   -1.975141   -0.043152
     26          6           0        0.167065   -0.648289   -0.645620
     27          1           0        0.088872    0.283854   -1.206537
     28          1           0       -0.185348   -1.437829   -1.314704
 ---------------------------------------------------------------------

 The electronic state is 1-A.
 Alpha  occ. eigenvalues --  -11.23020 -11.22460 -11.21868 -11.21730 -11.21712
 Alpha  occ. eigenvalues --  -11.21539 -11.21506 -11.21436 -11.21417 -11.21348
 Alpha  occ. eigenvalues --   -1.10821  -1.08492  -1.01823  -0.98143  -0.93838
 Alpha  occ. eigenvalues --   -0.91939  -0.86963  -0.82855  -0.70494  -0.69519
 Alpha  occ. eigenvalues --   -0.64988  -0.61512  -0.60591  -0.58878  -0.58366
 Alpha  occ. eigenvalues --   -0.56774  -0.55298  -0.54966  -0.53295  -0.52261
 Alpha  occ. eigenvalues --   -0.51859  -0.51173  -0.50832  -0.49581  -0.48519
 Alpha  occ. eigenvalues --   -0.46073  -0.44624  -0.33371  -0.31514
 Alpha virt. eigenvalues --    0.18142   0.19779   0.22152   0.24486   0.25192
 Alpha virt. eigenvalues --    0.27439   0.28535   0.28922   0.30318   0.30811
 Alpha virt. eigenvalues --    0.31477   0.32261   0.33202   0.33794   0.34383

 Mulliken charges:
               1
     1  C   -0.236021
     2  H    0.125346
     3  H    0.115272
     4  C    0.018322
     5  C   -0.341505
     6  H    0.114461
     7  H    0.117845
     8  H    0.117792
     9  C   -0.154256
    10  H    0.115801
    11  C   -0.355567
    12  H    0.119588
    13  H    0.116140
    14  H    0.120830
    15  C   -0.350727
    16  H    0.121058
    17  H    0.119352
    18  H    0.120474
    19  C    0.027221
    20  C   -0.342631
    21  H    0.116356
    22  H    0.119222
    23  H    0.115672
    24  C   -0.163542
    25  H    0.116803
    26  C   -0.235486
    27  H    0.123802
    28  H    0.118380
 Sum of Mulliken charges =  -0.00000

 Dipole moment (field-independent basis, Debye):
    X=              0.3027    Y=              0.1253    Z=              0.0460  Tot=              0.3308
 Quadrupole moment (field-independent basis, Debye-Ang):
   XX=            -64.3023   YY=            -63.2901   ZZ=            -67.3956
   XY=              0.7521   XZ=              1.2367   YZ=             -0.3487

 Normal termination of Gaussian 16 at Fri Sep 17 15:40:24 2021.
