 Gaussian 16, Revision A.03,
 Gaussian 16:  EM64L-G16RevA.03 25-Dec-2016

 ---------------------
 #p opt mp2/6-31g(d,p)
 ---------------------

 --------------------------------------------------
 Conformer number 2927. Energy MM = 23.242 kcal/mol
 --------------------------------------------------
 Symbolic Z-matrix:
 Charge =  0 Multiplicity = 1

 SCF Done:  E(RHF) =  -389.155207337     A.U. after   13 cycles
 E2 =    -0.1416943188D+01 EUMP2 =    -0.39057215052566D+03
 SCF Done:  E(RHF) =  -389.157042684     A.U. after   10 cycles
 E2 =    -0.1416584998D+01 EUMP2 =    -0.39057362768221D+03
 SCF Done:  E(RHF) =  -389.157029222     A.U. after   10 cycles
 E2 =    -0.1416744938D+01 EUMP2 =    -0.39057377416017D+03
 SCF Done:  E(RHF) =  -389.156867677     A.U. after   10 cycles
 E2 =    -0.1416945975D+01 EUMP2 =    -0.39057381365198D+03
 SCF Done:  E(RHF) =  -389.156787700     A.U. after    9 cycles
 E2 =    -0.1417044010D+01 EUMP2 =    -0.39057383170963D+03
 SCF Done:  E(RHF) =  -389.156773221     A.U. after    9 cycles
 E2 =    -0.1417073033D+01 EUMP2 =    -0.39057384625424D+03
 SCF Done:  E(RHF) =  -389.156760873     A.U. after    9 cycles
 E2 =    -0.1417091947D+01 EUMP2 =    -0.39057385281990D+03
 SCF Done:  E(RHF) =  -389.156781745     A.U. after    9 cycles
 E2 =    -0.1417079005D+01 EUMP2 =    -0.39057386075046D+03
 SCF Done:  E(RHF) =  -389.156771420     A.U. after    8 cycles
 E2 =    -0.1417092359D+01 EUMP2 =    -0.39057386377923D+03
 SCF Done:  E(RHF) =  -389.156767761     A.U. after    8 cycles
 E2 =    -0.1417096531D+01 EUMP2 =    -0.39057386429154D+03
 SCF Done:  E(RHF) =  -389.156757597     A.U. after    7 cycles
 E2 =    -0.1417106874D+01 EUMP2 =    -0.39057386447074D+03
 SCF Done:  E(RHF) =  -389.156754762     A.U. after    7 cycles
 E2 =    -0.1417109770D+01 EUMP2 =    -0.39057386453156D+03
 SCF Done:  E(RHF) =  -389.156753411     A.U. after    7 cycles
 E2 =    -0.1417111165D+01 EUMP2 =    -0.39057386457620D+03
 Optimization completed.
    -- Stationary point found.

                         Standard orientation:
 ---------------------------------------------------------------------
 Center     Atomic      Atomic             Coordinates (Angstroms)
 Number     Number       Type             X           Y           Z
 ---------------------------------------------------------------------
      1          6           0        0.771605   -0.568567    0.573564
      2          1           0        0.434179    0.245287    1.217226
      3          1           0        0.668082   -1.485497    1.160940
      4          6           0        2.214024   -0.393329    0.170069
      5          6           0        2.980764   -1.666246   -0.064975
      6          1           0        3.988689   -1.465703   -0.426066
      7          1           0        3.055778   -2.249825    0.855152
      8          1           0        2.476559   -2.296859   -0.800625
      9          6           0        2.788609    0.807938   -0.026814
     10          1           0        3.827905    0.823827   -0.343285
     11          6           0        2.147312    2.151891    0.141922
     12          1           0        1.106285    2.078476    0.448284
     13          1           0        2.677193    2.747027    0.888114
     14          1           0        2.179308    2.713955   -0.793367
     15          6           0       -3.939277   -0.466988    0.381607
     16          1           0       -4.213771    0.006268    1.327065
     17          1           0       -4.693641   -0.171264   -0.351043
     18          1           0       -3.994274   -1.546765    0.511286
     19          6           0       -2.568195   -0.032332   -0.057323
     20          6           0       -2.413464    1.449344   -0.261181
     21          1           0       -1.404441    1.735286   -0.547283
     22          1           0       -3.100650    1.803971   -1.032667
     23          1           0       -2.667181    1.983657    0.656955
     24          6           0       -1.584558   -0.932201   -0.245625
     25          1           0       -1.815021   -1.975145   -0.043167
     26          6           0       -0.167066   -0.648295   -0.645624
     27          1           0       -0.088872    0.283845   -1.206548
     28          1           0        0.185349   -1.437839   -1.314701
 ---------------------------------------------------------------------

 The electronic state is 1-A.
 Alpha  occ. eigenvalues --  -11.23020 -11.22460 -11.21868 -11.21729 -11.21712
 Alpha  occ. eigenvalues --  -11.21539 -11.21506 -11.21436 -11.21417 -11.21348
 Alpha  occ. eigenvalues --   -1.10821  -1.08492  -1.01823  -0.98143  -0.93838
 Alpha  occ. eigenvalues --   -0.91939  -0.86963  -0.82855  -0.70494  -0.69519
 Alpha  occ. eigenvalues --   -0.64988  -0.61512  -0.60591  -0.58878  -0.58366
 Alpha  occ. eigenvalues --   -0.56774  -0.55298  -0.54966  -0.53295  -0.52261
 Alpha  occ. eigenvalues --   -0.51859  -0.51173  -0.50832  -0.49581  -0.48519
 Alpha  occ. eigenvalues --   -0.46073  -0.44624  -0.33371  -0.31514
 Alpha virt. eigenvalues --    0.18142   0.19779   0.22152   0.24486   0.25192
 Alpha virt. eigenvalues --    0.27439   0.28535   0.28922   0.30318   0.30811
 Alpha virt. eigenvalues --    0.31477   0.32261   0.33202   0.33794   0.34383

 Mulliken charges:
               1
     1  C   -0.236021
     2  H    0.125346
     3  H    0.115272
     4  C    0.018322
     5  C   -0.341505
     6  H    0.117792
     7  H    0.117844
     8  H    0.114461
     9  C   -0.154256
    10  H    0.115801
    11  C   -0.355567
    12  H    0.116140
    13  H    0.120830
    14  H    0.119588
    15  C   -0.342631
    16  H    0.115672
    17  H    0.116356
    18  H    0.119222
    19  C    0.027222
    20  C   -0.350727
    21  H    0.120473
    22  H    0.121058
    23  H    0.119352
    24  C   -0.163543
    25  H    0.116803
    26  C   -0.235486
    27  H    0.123802
    28  H    0.118380
 Sum of Mulliken charges =  -0.00000

 Dipole moment (field-independent basis, Debye):
    X=             -0.3027    Y=              0.1253    Z=              0.0460  Tot=              0.3308
 Quadrupole moment (field-independent basis, Debye-Ang):
   XX=            -64.3023   YY=            -63.2901   ZZ=            -67.3956
   XY=             -0.7521   XZ=             -1.2367   YZ=             -0.3487

 Normal termination of Gaussian 16 at Fri Sep 17 16:11:50 2021.
