 Gaussian 16, Revision A.03,
 Gaussian 16:  EM64L-G16RevA.03 25-Dec-2016

 ---------------------
 #p opt mp2/6-31g(d,p)
 ---------------------

 --------------------------------------------------
 Conformer number 3170. Energy MM = 23.242 kcal/mol
 --------------------------------------------------
 Symbolic Z-matrix:
 Charge =  0 Multiplicity = 1

 SCF Done:  E(RHF) =  -389.155201155     A.U. after   13 cycles
 E2 =    -0.1416948519D+01 EUMP2 =    -0.39057214967315D+03
 SCF Done:  E(RHF) =  -389.157042673     A.U. after   10 cycles
 E2 =    -0.1416584926D+01 EUMP2 =    -0.39057362759962D+03
 SCF Done:  E(RHF) =  -389.157029581     A.U. after   10 cycles
 E2 =    -0.1416744593D+01 EUMP2 =    -0.39057377417420D+03
 SCF Done:  E(RHF) =  -389.156867761     A.U. after   10 cycles
 E2 =    -0.1416945917D+01 EUMP2 =    -0.39057381367830D+03
 SCF Done:  E(RHF) =  -389.156787706     A.U. after    9 cycles
 E2 =    -0.1417044029D+01 EUMP2 =    -0.39057383173447D+03
 SCF Done:  E(RHF) =  -389.156773165     A.U. after    9 cycles
 E2 =    -0.1417073123D+01 EUMP2 =    -0.39057384628783D+03
 SCF Done:  E(RHF) =  -389.156760889     A.U. after    9 cycles
 E2 =    -0.1417091966D+01 EUMP2 =    -0.39057385285501D+03
 SCF Done:  E(RHF) =  -389.156781784     A.U. after    9 cycles
 E2 =    -0.1417078989D+01 EUMP2 =    -0.39057386077318D+03
 SCF Done:  E(RHF) =  -389.156771592     A.U. after    8 cycles
 E2 =    -0.1417092190D+01 EUMP2 =    -0.39057386378134D+03
 SCF Done:  E(RHF) =  -389.156767870     A.U. after    8 cycles
 E2 =    -0.1417096423D+01 EUMP2 =    -0.39057386429270D+03
 SCF Done:  E(RHF) =  -389.156757668     A.U. after    7 cycles
 E2 =    -0.1417106804D+01 EUMP2 =    -0.39057386447171D+03
 SCF Done:  E(RHF) =  -389.156754815     A.U. after    7 cycles
 E2 =    -0.1417109717D+01 EUMP2 =    -0.39057386453219D+03
 SCF Done:  E(RHF) =  -389.156753456     A.U. after    7 cycles
 E2 =    -0.1417111120D+01 EUMP2 =    -0.39057386457644D+03
 Optimization completed.
    -- Stationary point found.

                         Standard orientation:
 ---------------------------------------------------------------------
 Center     Atomic      Atomic             Coordinates (Angstroms)
 Number     Number       Type             X           Y           Z
 ---------------------------------------------------------------------
      1          6           0        0.771610   -0.568571    0.573566
      2          1           0        0.668090   -1.485505    1.160935
      3          1           0        0.434186    0.245278    1.217236
      4          6           0        2.214028   -0.393328    0.170067
      5          6           0        2.980769   -1.666243   -0.064983
      6          1           0        2.476561   -2.296857   -0.800630
      7          1           0        3.055791   -2.249823    0.855142
      8          1           0        3.988692   -1.465697   -0.426082
      9          6           0        2.788609    0.807940   -0.026813
     10          1           0        3.827904    0.823833   -0.343288
     11          6           0        2.147309    2.151891    0.141929
     12          1           0        1.106285    2.078472    0.448301
     13          1           0        2.677195    2.747029    0.888115
     14          1           0        2.179293    2.713955   -0.793361
     15          6           0       -2.413475    1.449343   -0.261188
     16          1           0       -1.404454    1.735290   -0.547290
     17          1           0       -2.667197    1.983659    0.656944
     18          1           0       -3.100662    1.803962   -1.032678
     19          6           0       -2.568198   -0.032333   -0.057323
     20          6           0       -3.939277   -0.466995    0.381608
     21          1           0       -3.994268   -1.546771    0.511293
     22          1           0       -4.213774    0.006265    1.327063
     23          1           0       -4.693642   -0.171279   -0.351044
     24          6           0       -1.584555   -0.932199   -0.245619
     25          1           0       -1.815014   -1.975142   -0.043155
     26          6           0       -0.167065   -0.648289   -0.645620
     27          1           0       -0.088872    0.283855   -1.206537
     28          1           0        0.185349   -1.437828   -1.314704
 ---------------------------------------------------------------------

 The electronic state is 1-A.
 Alpha  occ. eigenvalues --  -11.23020 -11.22460 -11.21868 -11.21729 -11.21712
 Alpha  occ. eigenvalues --  -11.21539 -11.21506 -11.21436 -11.21417 -11.21348
 Alpha  occ. eigenvalues --   -1.10821  -1.08492  -1.01823  -0.98143  -0.93838
 Alpha  occ. eigenvalues --   -0.91939  -0.86963  -0.82855  -0.70494  -0.69519
 Alpha  occ. eigenvalues --   -0.64988  -0.61512  -0.60591  -0.58878  -0.58366
 Alpha  occ. eigenvalues --   -0.56774  -0.55298  -0.54966  -0.53295  -0.52261
 Alpha  occ. eigenvalues --   -0.51859  -0.51173  -0.50832  -0.49581  -0.48519
 Alpha  occ. eigenvalues --   -0.46073  -0.44624  -0.33371  -0.31514
 Alpha virt. eigenvalues --    0.18142   0.19779   0.22152   0.24486   0.25192
 Alpha virt. eigenvalues --    0.27439   0.28535   0.28922   0.30318   0.30811
 Alpha virt. eigenvalues --    0.31477   0.32261   0.33202   0.33794   0.34383

 Mulliken charges:
               1
     1  C   -0.236021
     2  H    0.115272
     3  H    0.125346
     4  C    0.018322
     5  C   -0.341505
     6  H    0.114461
     7  H    0.117845
     8  H    0.117792
     9  C   -0.154256
    10  H    0.115801
    11  C   -0.355567
    12  H    0.116140
    13  H    0.120829
    14  H    0.119588
    15  C   -0.350727
    16  H    0.120474
    17  H    0.119352
    18  H    0.121058
    19  C    0.027221
    20  C   -0.342631
    21  H    0.119222
    22  H    0.115672
    23  H    0.116356
    24  C   -0.163542
    25  H    0.116803
    26  C   -0.235486
    27  H    0.123802
    28  H    0.118380
 Sum of Mulliken charges =  -0.00000

 Dipole moment (field-independent basis, Debye):
    X=             -0.3027    Y=              0.1253    Z=              0.0460  Tot=              0.3308
 Quadrupole moment (field-independent basis, Debye-Ang):
   XX=            -64.3023   YY=            -63.2901   ZZ=            -67.3956
   XY=             -0.7521   XZ=             -1.2367   YZ=             -0.3487

 Normal termination of Gaussian 16 at Fri Sep 17 16:22:33 2021.
