 Gaussian 16, Revision A.03,
 Gaussian 16:  EM64L-G16RevA.03 25-Dec-2016

 ---------------------
 #p opt mp2/6-31g(d,p)
 ---------------------

 --------------------------------------------------
 Conformer number 2179. Energy MM = 23.287 kcal/mol
 --------------------------------------------------
 Symbolic Z-matrix:
 Charge =  0 Multiplicity = 1

 SCF Done:  E(RHF) =  -389.155305329     A.U. after   12 cycles
 E2 =    -0.1416655030D+01 EUMP2 =    -0.39057196035910D+03
 SCF Done:  E(RHF) =  -389.157061981     A.U. after   10 cycles
 E2 =    -0.1416312017D+01 EUMP2 =    -0.39057337399778D+03
 SCF Done:  E(RHF) =  -389.157054515     A.U. after    9 cycles
 E2 =    -0.1416426775D+01 EUMP2 =    -0.39057348128931D+03
 SCF Done:  E(RHF) =  -389.156932623     A.U. after    9 cycles
 E2 =    -0.1416576579D+01 EUMP2 =    -0.39057350920152D+03
 SCF Done:  E(RHF) =  -389.156869166     A.U. after    9 cycles
 E2 =    -0.1416657160D+01 EUMP2 =    -0.39057352632629D+03
 SCF Done:  E(RHF) =  -389.156836730     A.U. after    9 cycles
 E2 =    -0.1416698053D+01 EUMP2 =    -0.39057353478265D+03
 SCF Done:  E(RHF) =  -389.156861291     A.U. after    8 cycles
 E2 =    -0.1416680401D+01 EUMP2 =    -0.39057354169145D+03
 SCF Done:  E(RHF) =  -389.156909581     A.U. after    8 cycles
 E2 =    -0.1416639223D+01 EUMP2 =    -0.39057354880362D+03
 SCF Done:  E(RHF) =  -389.156923088     A.U. after    8 cycles
 E2 =    -0.1416628183D+01 EUMP2 =    -0.39057355127050D+03
 SCF Done:  E(RHF) =  -389.156921431     A.U. after    8 cycles
 E2 =    -0.1416630671D+01 EUMP2 =    -0.39057355210203D+03
 SCF Done:  E(RHF) =  -389.156909058     A.U. after    8 cycles
 E2 =    -0.1416643486D+01 EUMP2 =    -0.39057355254456D+03
 SCF Done:  E(RHF) =  -389.156899896     A.U. after    7 cycles
 E2 =    -0.1416652785D+01 EUMP2 =    -0.39057355268161D+03
 SCF Done:  E(RHF) =  -389.156891771     A.U. after    7 cycles
 E2 =    -0.1416661038D+01 EUMP2 =    -0.39057355280951D+03
 SCF Done:  E(RHF) =  -389.156885262     A.U. after    8 cycles
 E2 =    -0.1416667625D+01 EUMP2 =    -0.39057355288710D+03
 SCF Done:  E(RHF) =  -389.156884812     A.U. after    7 cycles
 E2 =    -0.1416668097D+01 EUMP2 =    -0.39057355290867D+03
 SCF Done:  E(RHF) =  -389.156884226     A.U. after    7 cycles
 E2 =    -0.1416668696D+01 EUMP2 =    -0.39057355292198D+03
 SCF Done:  E(RHF) =  -389.156883419     A.U. after    7 cycles
 E2 =    -0.1416669514D+01 EUMP2 =    -0.39057355293285D+03
 SCF Done:  E(RHF) =  -389.156881484     A.U. after    7 cycles
 E2 =    -0.1416671462D+01 EUMP2 =    -0.39057355294538D+03
 SCF Done:  E(RHF) =  -389.156879194     A.U. after    7 cycles
 E2 =    -0.1416673760D+01 EUMP2 =    -0.39057355295452D+03
 Optimization completed.
    -- Stationary point found.

                         Standard orientation:
 ---------------------------------------------------------------------
 Center     Atomic      Atomic             Coordinates (Angstroms)
 Number     Number       Type             X           Y           Z
 ---------------------------------------------------------------------
      1          6           0       -0.735170   -0.049078    0.599759
      2          1           0       -0.858055   -0.995634    1.128937
      3          1           0       -0.223413    0.624744    1.292496
      4          6           0       -2.067655    0.543249    0.215791
      5          6           0       -2.104155    2.045368    0.133363
      6          1           0       -3.069526    2.403681   -0.221848
      7          1           0       -1.333938    2.419912   -0.544718
      8          1           0       -1.910793    2.492461    1.110901
      9          6           0       -3.153235   -0.192400   -0.087704
     10          1           0       -4.055792    0.338639   -0.377517
     11          6           0       -3.263931   -1.686752   -0.074226
     12          1           0       -2.331809   -2.169072    0.210544
     13          1           0       -4.039620   -2.014394    0.620464
     14          1           0       -3.542749   -2.060854   -1.061009
     15          6           0        3.916378   -0.864528    0.368678
     16          1           0        4.708400   -0.730894   -0.371682
     17          1           0        4.291656   -0.457677    1.310391
     18          1           0        3.748901   -1.932405    0.500318
     19          6           0        2.660161   -0.156651   -0.058483
     20          6           0        2.813786    1.324570   -0.266414
     21          1           0        3.545441    1.527251   -1.051706
     22          1           0        3.190160    1.794764    0.644563
     23          1           0        1.881714    1.815019   -0.535187
     24          6           0        1.510453   -0.834983   -0.233757
     25          1           0        1.524740   -1.902886   -0.030088
     26          6           0        0.175906   -0.271954   -0.622747
     27          1           0       -0.327652   -0.961525   -1.305225
     28          1           0        0.287105    0.667821   -1.165184
 ---------------------------------------------------------------------

 The electronic state is 1-A.
 Alpha  occ. eigenvalues --  -11.23028 -11.22456 -11.21863 -11.21726 -11.21721
 Alpha  occ. eigenvalues --  -11.21541 -11.21497 -11.21449 -11.21393 -11.21358
 Alpha  occ. eigenvalues --   -1.10803  -1.08495  -1.01828  -0.98138  -0.93839
 Alpha  occ. eigenvalues --   -0.91936  -0.86954  -0.82861  -0.70567  -0.69489
 Alpha  occ. eigenvalues --   -0.64754  -0.61539  -0.60720  -0.58828  -0.58414
 Alpha  occ. eigenvalues --   -0.56814  -0.55405  -0.54979  -0.53298  -0.52217
 Alpha  occ. eigenvalues --   -0.51714  -0.51214  -0.50653  -0.50166  -0.47383
 Alpha  occ. eigenvalues --   -0.46917  -0.44458  -0.33328  -0.31563
 Alpha virt. eigenvalues --    0.18100   0.19932   0.22053   0.24536   0.24955
 Alpha virt. eigenvalues --    0.27424   0.28601   0.28877   0.30353   0.30694
 Alpha virt. eigenvalues --    0.31966   0.32601   0.32969   0.33726   0.34466

 Mulliken charges:
               1
     1  C   -0.235696
     2  H    0.121814
     3  H    0.118365
     4  C    0.017883
     5  C   -0.340845
     6  H    0.118112
     7  H    0.111985
     8  H    0.118156
     9  C   -0.153908
    10  H    0.115552
    11  C   -0.353585
    12  H    0.115581
    13  H    0.120250
    14  H    0.120163
    15  C   -0.342746
    16  H    0.116299
    17  H    0.115688
    18  H    0.119226
    19  C    0.027041
    20  C   -0.348771
    21  H    0.120971
    22  H    0.119572
    23  H    0.118676
    24  C   -0.163245
    25  H    0.116321
    26  C   -0.234395
    27  H    0.123405
    28  H    0.118132
 Sum of Mulliken charges =  -0.00000

 Dipole moment (field-independent basis, Debye):
    X=              0.3626    Y=              0.1699    Z=              0.0498  Tot=              0.4035
 Quadrupole moment (field-independent basis, Debye-Ang):
   XX=            -63.7582   YY=            -63.7112   ZZ=            -67.3994
   XY=              1.0617   XZ=              1.2177   YZ=             -0.3674

 Normal termination of Gaussian 16 at Fri Sep 17 15:26:07 2021.
