 Gaussian 16, Revision A.03,
 Gaussian 16:  EM64L-G16RevA.03 25-Dec-2016

 ---------------------
 #p opt mp2/6-31g(d,p)
 ---------------------

 --------------------------------------------------
 Conformer number 2655. Energy MM = 23.242 kcal/mol
 --------------------------------------------------
 Symbolic Z-matrix:
 Charge =  0 Multiplicity = 1

 SCF Done:  E(RHF) =  -389.155204362     A.U. after   13 cycles
 E2 =    -0.1416946867D+01 EUMP2 =    -0.39057215122839D+03
 SCF Done:  E(RHF) =  -389.157043145     A.U. after   10 cycles
 E2 =    -0.1416584899D+01 EUMP2 =    -0.39057362804406D+03
 SCF Done:  E(RHF) =  -389.157029408     A.U. after   10 cycles
 E2 =    -0.1416744775D+01 EUMP2 =    -0.39057377418346D+03
 SCF Done:  E(RHF) =  -389.156867805     A.U. after   10 cycles
 E2 =    -0.1416945825D+01 EUMP2 =    -0.39057381362987D+03
 SCF Done:  E(RHF) =  -389.156787572     A.U. after    9 cycles
 E2 =    -0.1417044159D+01 EUMP2 =    -0.39057383173053D+03
 SCF Done:  E(RHF) =  -389.156773080     A.U. after    9 cycles
 E2 =    -0.1417073198D+01 EUMP2 =    -0.39057384627849D+03
 SCF Done:  E(RHF) =  -389.156760667     A.U. after    9 cycles
 E2 =    -0.1417092159D+01 EUMP2 =    -0.39057385282581D+03
 SCF Done:  E(RHF) =  -389.156781744     A.U. after    9 cycles
 E2 =    -0.1417079035D+01 EUMP2 =    -0.39057386077911D+03
 SCF Done:  E(RHF) =  -389.156771522     A.U. after    8 cycles
 E2 =    -0.1417092258D+01 EUMP2 =    -0.39057386377973D+03
 SCF Done:  E(RHF) =  -389.156767776     A.U. after    8 cycles
 E2 =    -0.1417096515D+01 EUMP2 =    -0.39057386429130D+03
 SCF Done:  E(RHF) =  -389.156757618     A.U. after    7 cycles
 E2 =    -0.1417106852D+01 EUMP2 =    -0.39057386447049D+03
 SCF Done:  E(RHF) =  -389.156754788     A.U. after    7 cycles
 E2 =    -0.1417109744D+01 EUMP2 =    -0.39057386453135D+03
 SCF Done:  E(RHF) =  -389.156753426     A.U. after    7 cycles
 E2 =    -0.1417111150D+01 EUMP2 =    -0.39057386457621D+03
 Optimization completed.
    -- Stationary point found.

                         Standard orientation:
 ---------------------------------------------------------------------
 Center     Atomic      Atomic             Coordinates (Angstroms)
 Number     Number       Type             X           Y           Z
 ---------------------------------------------------------------------
      1          6           0        0.771606   -0.568567    0.573565
      2          1           0        0.668083   -1.485496    1.160942
      3          1           0        0.434179    0.245288    1.217226
      4          6           0        2.214024   -0.393329    0.170069
      5          6           0        2.980762   -1.666246   -0.064979
      6          1           0        3.055777   -2.249828    0.855145
      7          1           0        2.476557   -2.296857   -0.800631
      8          1           0        3.988688   -1.465703   -0.426071
      9          6           0        2.788610    0.807938   -0.026812
     10          1           0        3.827906    0.823826   -0.343284
     11          6           0        2.147315    2.151891    0.141926
     12          1           0        2.179309    2.713955   -0.793363
     13          1           0        1.106289    2.078477    0.448290
     14          1           0        2.677198    2.747026    0.888117
     15          6           0       -3.939276   -0.466987    0.381611
     16          1           0       -4.213770    0.006276    1.327065
     17          1           0       -3.994271   -1.546763    0.511298
     18          1           0       -4.693642   -0.171270   -0.351040
     19          6           0       -2.568196   -0.032331   -0.057323
     20          6           0       -2.413467    1.449344   -0.261189
     21          1           0       -2.667181    1.983661    0.656945
     22          1           0       -1.404445    1.735285   -0.547297
     23          1           0       -3.100657    1.803966   -1.032674
     24          6           0       -1.584558   -0.932201   -0.245622
     25          1           0       -1.815020   -1.975143   -0.043158
     26          6           0       -0.167067   -0.648296   -0.645623
     27          1           0       -0.088872    0.283843   -1.206548
     28          1           0        0.185348   -1.437841   -1.314700
 ---------------------------------------------------------------------

 The electronic state is 1-A.
 Alpha  occ. eigenvalues --  -11.23020 -11.22460 -11.21868 -11.21730 -11.21712
 Alpha  occ. eigenvalues --  -11.21539 -11.21506 -11.21436 -11.21417 -11.21348
 Alpha  occ. eigenvalues --   -1.10821  -1.08492  -1.01823  -0.98143  -0.93838
 Alpha  occ. eigenvalues --   -0.91939  -0.86963  -0.82855  -0.70494  -0.69519
 Alpha  occ. eigenvalues --   -0.64988  -0.61512  -0.60591  -0.58878  -0.58366
 Alpha  occ. eigenvalues --   -0.56774  -0.55298  -0.54966  -0.53295  -0.52261
 Alpha  occ. eigenvalues --   -0.51859  -0.51173  -0.50832  -0.49581  -0.48519
 Alpha  occ. eigenvalues --   -0.46073  -0.44624  -0.33371  -0.31514
 Alpha virt. eigenvalues --    0.18142   0.19779   0.22152   0.24486   0.25192
 Alpha virt. eigenvalues --    0.27439   0.28535   0.28922   0.30318   0.30811
 Alpha virt. eigenvalues --    0.31477   0.32261   0.33202   0.33794   0.34383

 Mulliken charges:
               1
     1  C   -0.236021
     2  H    0.115272
     3  H    0.125346
     4  C    0.018322
     5  C   -0.341505
     6  H    0.117844
     7  H    0.114461
     8  H    0.117792
     9  C   -0.154256
    10  H    0.115801
    11  C   -0.355567
    12  H    0.119588
    13  H    0.116140
    14  H    0.120830
    15  C   -0.342631
    16  H    0.115672
    17  H    0.119222
    18  H    0.116356
    19  C    0.027222
    20  C   -0.350727
    21  H    0.119352
    22  H    0.120474
    23  H    0.121058
    24  C   -0.163543
    25  H    0.116803
    26  C   -0.235486
    27  H    0.123802
    28  H    0.118380
 Sum of Mulliken charges =  -0.00000

 Dipole moment (field-independent basis, Debye):
    X=             -0.3027    Y=              0.1253    Z=              0.0460  Tot=              0.3308
 Quadrupole moment (field-independent basis, Debye-Ang):
   XX=            -64.3024   YY=            -63.2901   ZZ=            -67.3956
   XY=             -0.7521   XZ=             -1.2367   YZ=             -0.3487

 Normal termination of Gaussian 16 at Fri Sep 17 15:10:05 2021.
