 Gaussian 16, Revision A.03,
 Gaussian 16:  EM64L-G16RevA.03 25-Dec-2016

 ---------------------
 #p opt mp2/6-31g(d,p)
 ---------------------

 --------------------------------------------------
 Conformer number 2821. Energy MM = 23.242 kcal/mol
 --------------------------------------------------
 Symbolic Z-matrix:
 Charge =  0 Multiplicity = 1

 SCF Done:  E(RHF) =  -389.155206355     A.U. after   13 cycles
 E2 =    -0.1416944087D+01 EUMP2 =    -0.39057215044223D+03
 SCF Done:  E(RHF) =  -389.157042923     A.U. after   10 cycles
 E2 =    -0.1416585078D+01 EUMP2 =    -0.39057362800137D+03
 SCF Done:  E(RHF) =  -389.157029344     A.U. after   10 cycles
 E2 =    -0.1416744854D+01 EUMP2 =    -0.39057377419757D+03
 SCF Done:  E(RHF) =  -389.156867812     A.U. after   10 cycles
 E2 =    -0.1416945823D+01 EUMP2 =    -0.39057381363450D+03
 SCF Done:  E(RHF) =  -389.156787578     A.U. after    9 cycles
 E2 =    -0.1417044158D+01 EUMP2 =    -0.39057383173609D+03
 SCF Done:  E(RHF) =  -389.156773134     A.U. after    9 cycles
 E2 =    -0.1417073137D+01 EUMP2 =    -0.39057384627114D+03
 SCF Done:  E(RHF) =  -389.156760786     A.U. after    9 cycles
 E2 =    -0.1417092034D+01 EUMP2 =    -0.39057385282017D+03
 SCF Done:  E(RHF) =  -389.156781820     A.U. after    9 cycles
 E2 =    -0.1417078955D+01 EUMP2 =    -0.39057386077471D+03
 SCF Done:  E(RHF) =  -389.156771580     A.U. after    8 cycles
 E2 =    -0.1417092197D+01 EUMP2 =    -0.39057386377716D+03
 SCF Done:  E(RHF) =  -389.156767799     A.U. after    8 cycles
 E2 =    -0.1417096491D+01 EUMP2 =    -0.39057386429020D+03
 SCF Done:  E(RHF) =  -389.156757580     A.U. after    7 cycles
 E2 =    -0.1417106891D+01 EUMP2 =    -0.39057386447042D+03
 SCF Done:  E(RHF) =  -389.156754756     A.U. after    7 cycles
 E2 =    -0.1417109776D+01 EUMP2 =    -0.39057386453150D+03
 SCF Done:  E(RHF) =  -389.156753417     A.U. after    7 cycles
 E2 =    -0.1417111160D+01 EUMP2 =    -0.39057386457624D+03
 Optimization completed.
    -- Stationary point found.

                         Standard orientation:
 ---------------------------------------------------------------------
 Center     Atomic      Atomic             Coordinates (Angstroms)
 Number     Number       Type             X           Y           Z
 ---------------------------------------------------------------------
      1          6           0        0.771605   -0.568567    0.573565
      2          1           0        0.434178    0.245288    1.217225
      3          1           0        0.668082   -1.485496    1.160942
      4          6           0        2.214024   -0.393329    0.170069
      5          6           0        2.980762   -1.666246   -0.064977
      6          1           0        3.055779   -2.249825    0.855150
      7          1           0        3.988687   -1.465704   -0.426071
      8          1           0        2.476555   -2.296860   -0.800625
      9          6           0        2.788609    0.807938   -0.026813
     10          1           0        3.827905    0.823826   -0.343284
     11          6           0        2.147315    2.151891    0.141924
     12          1           0        2.179307    2.713954   -0.793366
     13          1           0        2.677198    2.747028    0.888113
     14          1           0        1.106288    2.078478    0.448289
     15          6           0       -2.413463    1.449344   -0.261185
     16          1           0       -2.667184    1.983660    0.656948
     17          1           0       -3.100647    1.803968   -1.032675
     18          1           0       -1.404440    1.735285   -0.547285
     19          6           0       -2.568195   -0.032331   -0.057323
     20          6           0       -3.939276   -0.466986    0.381610
     21          1           0       -4.693641   -0.171264   -0.351041
     22          1           0       -3.994274   -1.546762    0.511291
     23          1           0       -4.213770    0.006273    1.327066
     24          6           0       -1.584559   -0.932202   -0.245623
     25          1           0       -1.815022   -1.975144   -0.043163
     26          6           0       -0.167067   -0.648296   -0.645624
     27          1           0        0.185348   -1.437842   -1.314700
     28          1           0       -0.088873    0.283843   -1.206549
 ---------------------------------------------------------------------

 The electronic state is 1-A.
 Alpha  occ. eigenvalues --  -11.23020 -11.22460 -11.21868 -11.21730 -11.21712
 Alpha  occ. eigenvalues --  -11.21539 -11.21506 -11.21436 -11.21417 -11.21348
 Alpha  occ. eigenvalues --   -1.10821  -1.08492  -1.01823  -0.98143  -0.93838
 Alpha  occ. eigenvalues --   -0.91939  -0.86963  -0.82855  -0.70494  -0.69519
 Alpha  occ. eigenvalues --   -0.64988  -0.61512  -0.60591  -0.58878  -0.58366
 Alpha  occ. eigenvalues --   -0.56774  -0.55298  -0.54966  -0.53295  -0.52261
 Alpha  occ. eigenvalues --   -0.51859  -0.51173  -0.50832  -0.49581  -0.48519
 Alpha  occ. eigenvalues --   -0.46073  -0.44624  -0.33371  -0.31514
 Alpha virt. eigenvalues --    0.18142   0.19779   0.22152   0.24486   0.25192
 Alpha virt. eigenvalues --    0.27439   0.28535   0.28922   0.30318   0.30811
 Alpha virt. eigenvalues --    0.31477   0.32261   0.33202   0.33794   0.34383

 Mulliken charges:
               1
     1  C   -0.236021
     2  H    0.125346
     3  H    0.115272
     4  C    0.018322
     5  C   -0.341505
     6  H    0.117844
     7  H    0.117792
     8  H    0.114461
     9  C   -0.154256
    10  H    0.115801
    11  C   -0.355567
    12  H    0.119588
    13  H    0.120830
    14  H    0.116140
    15  C   -0.350727
    16  H    0.119352
    17  H    0.121058
    18  H    0.120474
    19  C    0.027222
    20  C   -0.342631
    21  H    0.116356
    22  H    0.119222
    23  H    0.115672
    24  C   -0.163543
    25  H    0.116803
    26  C   -0.235486
    27  H    0.118380
    28  H    0.123802
 Sum of Mulliken charges =  -0.00000

 Dipole moment (field-independent basis, Debye):
    X=             -0.3027    Y=              0.1253    Z=              0.0460  Tot=              0.3308
 Quadrupole moment (field-independent basis, Debye-Ang):
   XX=            -64.3024   YY=            -63.2901   ZZ=            -67.3956
   XY=             -0.7521   XZ=             -1.2367   YZ=             -0.3487

 Normal termination of Gaussian 16 at Fri Sep 17 16:10:34 2021.
