 Gaussian 16, Revision A.03,
 Gaussian 16:  EM64L-G16RevA.03 25-Dec-2016

 ---------------------
 #p opt mp2/6-31g(d,p)
 ---------------------

 -------------------------------------------------
 Conformer number 203. Energy MM = 23.242 kcal/mol
 -------------------------------------------------
 Symbolic Z-matrix:
 Charge =  0 Multiplicity = 1

 SCF Done:  E(RHF) =  -389.155214341     A.U. after   13 cycles
 E2 =    -0.1416938993D+01 EUMP2 =    -0.39057215333366D+03
 SCF Done:  E(RHF) =  -389.157042702     A.U. after   10 cycles
 E2 =    -0.1416585042D+01 EUMP2 =    -0.39057362774406D+03
 SCF Done:  E(RHF) =  -389.157029199     A.U. after   10 cycles
 E2 =    -0.1416744998D+01 EUMP2 =    -0.39057377419728D+03
 SCF Done:  E(RHF) =  -389.156867699     A.U. after   10 cycles
 E2 =    -0.1416945954D+01 EUMP2 =    -0.39057381365313D+03
 SCF Done:  E(RHF) =  -389.156787529     A.U. after    9 cycles
 E2 =    -0.1417044224D+01 EUMP2 =    -0.39057383175287D+03
 SCF Done:  E(RHF) =  -389.156773093     A.U. after    9 cycles
 E2 =    -0.1417073194D+01 EUMP2 =    -0.39057384628678D+03
 SCF Done:  E(RHF) =  -389.156760848     A.U. after    9 cycles
 E2 =    -0.1417091998D+01 EUMP2 =    -0.39057385284603D+03
 SCF Done:  E(RHF) =  -389.156781742     A.U. after    9 cycles
 E2 =    -0.1417079029D+01 EUMP2 =    -0.39057386077152D+03
 SCF Done:  E(RHF) =  -389.156771524     A.U. after    8 cycles
 E2 =    -0.1417092258D+01 EUMP2 =    -0.39057386378172D+03
 SCF Done:  E(RHF) =  -389.156767814     A.U. after    8 cycles
 E2 =    -0.1417096480D+01 EUMP2 =    -0.39057386429329D+03
 SCF Done:  E(RHF) =  -389.156757632     A.U. after    7 cycles
 E2 =    -0.1417106840D+01 EUMP2 =    -0.39057386447160D+03
 SCF Done:  E(RHF) =  -389.156754800     A.U. after    7 cycles
 E2 =    -0.1417109732D+01 EUMP2 =    -0.39057386453200D+03
 SCF Done:  E(RHF) =  -389.156753446     A.U. after    7 cycles
 E2 =    -0.1417111130D+01 EUMP2 =    -0.39057386457633D+03
 Optimization completed.
    -- Stationary point found.

                         Standard orientation:
 ---------------------------------------------------------------------
 Center     Atomic      Atomic             Coordinates (Angstroms)
 Number     Number       Type             X           Y           Z
 ---------------------------------------------------------------------
      1          6           0        0.771609   -0.568569    0.573566
      2          1           0        0.668088   -1.485502    1.160937
      3          1           0        0.434184    0.245281    1.217233
      4          6           0        2.214027   -0.393329    0.170068
      5          6           0        2.980767   -1.666244   -0.064982
      6          1           0        2.476561   -2.296856   -0.800632
      7          1           0        3.055785   -2.249825    0.855143
      8          1           0        3.988691   -1.465698   -0.426076
      9          6           0        2.788609    0.807940   -0.026813
     10          1           0        3.827904    0.823831   -0.343287
     11          6           0        2.147311    2.151891    0.141928
     12          1           0        2.677194    2.747028    0.888117
     13          1           0        2.179299    2.713956   -0.793361
     14          1           0        1.106285    2.078473    0.448296
     15          6           0       -2.413472    1.449343   -0.261188
     16          1           0       -2.667190    1.983659    0.656945
     17          1           0       -1.404452    1.735288   -0.547294
     18          1           0       -3.100662    1.803963   -1.032675
     19          6           0       -2.568197   -0.032332   -0.057323
     20          6           0       -3.939276   -0.466993    0.381609
     21          1           0       -3.994269   -1.546768    0.511295
     22          1           0       -4.693642   -0.171277   -0.351043
     23          1           0       -4.213773    0.006268    1.327063
     24          6           0       -1.584556   -0.932199   -0.245620
     25          1           0       -1.815016   -1.975142   -0.043156
     26          6           0       -0.167065   -0.648291   -0.645621
     27          1           0        0.185348   -1.437832   -1.314703
     28          1           0       -0.088872    0.283851   -1.206540
 ---------------------------------------------------------------------

 The electronic state is 1-A.
 Alpha  occ. eigenvalues --  -11.23020 -11.22460 -11.21868 -11.21730 -11.21712
 Alpha  occ. eigenvalues --  -11.21539 -11.21506 -11.21436 -11.21417 -11.21348
 Alpha  occ. eigenvalues --   -1.10821  -1.08492  -1.01823  -0.98143  -0.93838
 Alpha  occ. eigenvalues --   -0.91939  -0.86963  -0.82855  -0.70494  -0.69519
 Alpha  occ. eigenvalues --   -0.64988  -0.61512  -0.60591  -0.58878  -0.58366
 Alpha  occ. eigenvalues --   -0.56774  -0.55298  -0.54966  -0.53295  -0.52261
 Alpha  occ. eigenvalues --   -0.51859  -0.51173  -0.50832  -0.49581  -0.48519
 Alpha  occ. eigenvalues --   -0.46073  -0.44624  -0.33371  -0.31514
 Alpha virt. eigenvalues --    0.18142   0.19779   0.22152   0.24486   0.25192
 Alpha virt. eigenvalues --    0.27439   0.28535   0.28922   0.30318   0.30811
 Alpha virt. eigenvalues --    0.31477   0.32261   0.33202   0.33794   0.34383

 Mulliken charges:
               1
     1  C   -0.236021
     2  H    0.115272
     3  H    0.125346
     4  C    0.018322
     5  C   -0.341505
     6  H    0.114461
     7  H    0.117844
     8  H    0.117792
     9  C   -0.154256
    10  H    0.115801
    11  C   -0.355567
    12  H    0.120830
    13  H    0.119588
    14  H    0.116140
    15  C   -0.350727
    16  H    0.119352
    17  H    0.120474
    18  H    0.121058
    19  C    0.027222
    20  C   -0.342631
    21  H    0.119222
    22  H    0.116356
    23  H    0.115672
    24  C   -0.163542
    25  H    0.116803
    26  C   -0.235486
    27  H    0.118380
    28  H    0.123802
 Sum of Mulliken charges =  -0.00000

 Dipole moment (field-independent basis, Debye):
    X=             -0.3027    Y=              0.1253    Z=              0.0460  Tot=              0.3308
 Quadrupole moment (field-independent basis, Debye-Ang):
   XX=            -64.3024   YY=            -63.2901   ZZ=            -67.3956
   XY=             -0.7521   XZ=             -1.2367   YZ=             -0.3487

 Normal termination of Gaussian 16 at Fri Sep 17 14:53:01 2021.
