 Gaussian 16, Revision A.03,
 Gaussian 16:  EM64L-G16RevA.03 25-Dec-2016

 ---------------------
 #p opt mp2/6-31g(d,p)
 ---------------------

 -------------------------------------------------
 Conformer number 166. Energy MM = 23.242 kcal/mol
 -------------------------------------------------
 Symbolic Z-matrix:
 Charge =  0 Multiplicity = 1

 SCF Done:  E(RHF) =  -389.155203441     A.U. after   13 cycles
 E2 =    -0.1416946958D+01 EUMP2 =    -0.39057215039892D+03
 SCF Done:  E(RHF) =  -389.157042664     A.U. after   10 cycles
 E2 =    -0.1416585207D+01 EUMP2 =    -0.39057362787115D+03
 SCF Done:  E(RHF) =  -389.157029518     A.U. after   10 cycles
 E2 =    -0.1416744682D+01 EUMP2 =    -0.39057377420052D+03
 SCF Done:  E(RHF) =  -389.156868006     A.U. after   10 cycles
 E2 =    -0.1416945646D+01 EUMP2 =    -0.39057381365236D+03
 SCF Done:  E(RHF) =  -389.156787691     A.U. after    9 cycles
 E2 =    -0.1417044059D+01 EUMP2 =    -0.39057383174979D+03
 SCF Done:  E(RHF) =  -389.156773129     A.U. after    9 cycles
 E2 =    -0.1417073124D+01 EUMP2 =    -0.39057384625349D+03
 SCF Done:  E(RHF) =  -389.156760726     A.U. after    9 cycles
 E2 =    -0.1417092088D+01 EUMP2 =    -0.39057385281341D+03
 SCF Done:  E(RHF) =  -389.156781801     A.U. after    9 cycles
 E2 =    -0.1417078969D+01 EUMP2 =    -0.39057386076981D+03
 SCF Done:  E(RHF) =  -389.156771617     A.U. after    8 cycles
 E2 =    -0.1417092162D+01 EUMP2 =    -0.39057386377914D+03
 SCF Done:  E(RHF) =  -389.156767874     A.U. after    8 cycles
 E2 =    -0.1417096417D+01 EUMP2 =    -0.39057386429123D+03
 SCF Done:  E(RHF) =  -389.156757641     A.U. after    7 cycles
 E2 =    -0.1417106830D+01 EUMP2 =    -0.39057386447094D+03
 SCF Done:  E(RHF) =  -389.156754805     A.U. after    7 cycles
 E2 =    -0.1417109726D+01 EUMP2 =    -0.39057386453172D+03
 SCF Done:  E(RHF) =  -389.156753442     A.U. after    7 cycles
 E2 =    -0.1417111134D+01 EUMP2 =    -0.39057386457633D+03
 Optimization completed.
    -- Stationary point found.

                         Standard orientation:
 ---------------------------------------------------------------------
 Center     Atomic      Atomic             Coordinates (Angstroms)
 Number     Number       Type             X           Y           Z
 ---------------------------------------------------------------------
      1          6           0        0.771608   -0.568569    0.573566
      2          1           0        0.434183    0.245283    1.217230
      3          1           0        0.668087   -1.485500    1.160939
      4          6           0        2.214026   -0.393329    0.170068
      5          6           0        2.980765   -1.666244   -0.064982
      6          1           0        3.988689   -1.465700   -0.426078
      7          1           0        3.055784   -2.249826    0.855142
      8          1           0        2.476558   -2.296856   -0.800633
      9          6           0        2.788610    0.807939   -0.026812
     10          1           0        3.827905    0.823829   -0.343286
     11          6           0        2.147313    2.151891    0.141929
     12          1           0        2.179300    2.713955   -0.793361
     13          1           0        1.106288    2.078475    0.448299
     14          1           0        2.677199    2.747028    0.888116
     15          6           0       -2.413471    1.449343   -0.261192
     16          1           0       -2.667190    1.983661    0.656940
     17          1           0       -3.100659    1.803962   -1.032681
     18          1           0       -1.404449    1.735287   -0.547295
     19          6           0       -2.568197   -0.032332   -0.057323
     20          6           0       -3.939276   -0.466990    0.381611
     21          1           0       -4.213772    0.006273    1.327065
     22          1           0       -3.994269   -1.546766    0.511298
     23          1           0       -4.693642   -0.171275   -0.351041
     24          6           0       -1.584557   -0.932200   -0.245619
     25          1           0       -1.815017   -1.975142   -0.043154
     26          6           0       -0.167066   -0.648293   -0.645621
     27          1           0        0.185347   -1.437836   -1.314702
     28          1           0       -0.088873    0.283849   -1.206542
 ---------------------------------------------------------------------

 The electronic state is 1-A.
 Alpha  occ. eigenvalues --  -11.23020 -11.22460 -11.21868 -11.21730 -11.21712
 Alpha  occ. eigenvalues --  -11.21539 -11.21506 -11.21436 -11.21417 -11.21348
 Alpha  occ. eigenvalues --   -1.10821  -1.08492  -1.01823  -0.98143  -0.93838
 Alpha  occ. eigenvalues --   -0.91939  -0.86963  -0.82855  -0.70494  -0.69519
 Alpha  occ. eigenvalues --   -0.64988  -0.61512  -0.60591  -0.58878  -0.58366
 Alpha  occ. eigenvalues --   -0.56774  -0.55298  -0.54966  -0.53295  -0.52261
 Alpha  occ. eigenvalues --   -0.51859  -0.51173  -0.50832  -0.49581  -0.48519
 Alpha  occ. eigenvalues --   -0.46073  -0.44624  -0.33371  -0.31514
 Alpha virt. eigenvalues --    0.18142   0.19779   0.22152   0.24486   0.25192
 Alpha virt. eigenvalues --    0.27439   0.28535   0.28922   0.30318   0.30811
 Alpha virt. eigenvalues --    0.31477   0.32261   0.33202   0.33794   0.34383

 Mulliken charges:
               1
     1  C   -0.236021
     2  H    0.125346
     3  H    0.115272
     4  C    0.018322
     5  C   -0.341505
     6  H    0.117792
     7  H    0.117844
     8  H    0.114461
     9  C   -0.154256
    10  H    0.115801
    11  C   -0.355567
    12  H    0.119588
    13  H    0.116140
    14  H    0.120830
    15  C   -0.350727
    16  H    0.119352
    17  H    0.121058
    18  H    0.120474
    19  C    0.027222
    20  C   -0.342631
    21  H    0.115672
    22  H    0.119222
    23  H    0.116356
    24  C   -0.163542
    25  H    0.116803
    26  C   -0.235486
    27  H    0.118380
    28  H    0.123802
 Sum of Mulliken charges =  -0.00000

 Dipole moment (field-independent basis, Debye):
    X=             -0.3027    Y=              0.1253    Z=              0.0460  Tot=              0.3308
 Quadrupole moment (field-independent basis, Debye-Ang):
   XX=            -64.3024   YY=            -63.2901   ZZ=            -67.3956
   XY=             -0.7521   XZ=             -1.2367   YZ=             -0.3487

 Normal termination of Gaussian 16 at Fri Sep 17 14:54:00 2021.
