 Gaussian 16, Revision A.03,
 Gaussian 16:  EM64L-G16RevA.03 25-Dec-2016

 ---------------------
 #p opt mp2/6-31g(d,p)
 ---------------------

 --------------------------------------------------
 Conformer number 2337. Energy MM = 23.287 kcal/mol
 --------------------------------------------------
 Symbolic Z-matrix:
 Charge =  0 Multiplicity = 1

 SCF Done:  E(RHF) =  -389.155296264     A.U. after   12 cycles
 E2 =    -0.1416663431D+01 EUMP2 =    -0.39057195969513D+03
 SCF Done:  E(RHF) =  -389.157061885     A.U. after   10 cycles
 E2 =    -0.1416312090D+01 EUMP2 =    -0.39057337397445D+03
 SCF Done:  E(RHF) =  -389.157054873     A.U. after    9 cycles
 E2 =    -0.1416426392D+01 EUMP2 =    -0.39057348126487D+03
 SCF Done:  E(RHF) =  -389.156932841     A.U. after    9 cycles
 E2 =    -0.1416576348D+01 EUMP2 =    -0.39057350918833D+03
 SCF Done:  E(RHF) =  -389.156869196     A.U. after    9 cycles
 E2 =    -0.1416657126D+01 EUMP2 =    -0.39057352632226D+03
 SCF Done:  E(RHF) =  -389.156836673     A.U. after    9 cycles
 E2 =    -0.1416698104D+01 EUMP2 =    -0.39057353477721D+03
 SCF Done:  E(RHF) =  -389.156861048     A.U. after    8 cycles
 E2 =    -0.1416680630D+01 EUMP2 =    -0.39057354167822D+03
 SCF Done:  E(RHF) =  -389.156909394     A.U. after    8 cycles
 E2 =    -0.1416639395D+01 EUMP2 =    -0.39057354878948D+03
 SCF Done:  E(RHF) =  -389.156923041     A.U. after    8 cycles
 E2 =    -0.1416628230D+01 EUMP2 =    -0.39057355127119D+03
 SCF Done:  E(RHF) =  -389.156921447     A.U. after    8 cycles
 E2 =    -0.1416630654D+01 EUMP2 =    -0.39057355210097D+03
 SCF Done:  E(RHF) =  -389.156909028     A.U. after    8 cycles
 E2 =    -0.1416643517D+01 EUMP2 =    -0.39057355254510D+03
 SCF Done:  E(RHF) =  -389.156899866     A.U. after    7 cycles
 E2 =    -0.1416652816D+01 EUMP2 =    -0.39057355268201D+03
 SCF Done:  E(RHF) =  -389.156891748     A.U. after    7 cycles
 E2 =    -0.1416661062D+01 EUMP2 =    -0.39057355280991D+03
 SCF Done:  E(RHF) =  -389.156885252     A.U. after    8 cycles
 E2 =    -0.1416667635D+01 EUMP2 =    -0.39057355288739D+03
 SCF Done:  E(RHF) =  -389.156884812     A.U. after    7 cycles
 E2 =    -0.1416668097D+01 EUMP2 =    -0.39057355290888D+03
 SCF Done:  E(RHF) =  -389.156884225     A.U. after    7 cycles
 E2 =    -0.1416668698D+01 EUMP2 =    -0.39057355292211D+03
 SCF Done:  E(RHF) =  -389.156883414     A.U. after    7 cycles
 E2 =    -0.1416669519D+01 EUMP2 =    -0.39057355293293D+03
 SCF Done:  E(RHF) =  -389.156881472     A.U. after    7 cycles
 E2 =    -0.1416671474D+01 EUMP2 =    -0.39057355294545D+03
 SCF Done:  E(RHF) =  -389.156879185     A.U. after    7 cycles
 E2 =    -0.1416673770D+01 EUMP2 =    -0.39057355295455D+03
 Optimization completed.
    -- Stationary point found.

                         Standard orientation:
 ---------------------------------------------------------------------
 Center     Atomic      Atomic             Coordinates (Angstroms)
 Number     Number       Type             X           Y           Z
 ---------------------------------------------------------------------
      1          6           0       -0.735169   -0.049076    0.599759
      2          1           0       -0.858053   -0.995631    1.128940
      3          1           0       -0.223411    0.624747    1.292494
      4          6           0       -2.067655    0.543249    0.215792
      5          6           0       -2.104155    2.045368    0.133362
      6          1           0       -3.069529    2.403681   -0.221844
      7          1           0       -1.333943    2.419912   -0.544724
      8          1           0       -1.910789    2.492463    1.110898
      9          6           0       -3.153234   -0.192401   -0.087704
     10          1           0       -4.055792    0.338637   -0.377517
     11          6           0       -3.263928   -1.686753   -0.074225
     12          1           0       -3.542746   -2.060856   -1.061007
     13          1           0       -4.039615   -2.014396    0.620466
     14          1           0       -2.331805   -2.169072    0.210544
     15          6           0        3.916377   -0.864526    0.368678
     16          1           0        3.748902   -1.932404    0.500319
     17          1           0        4.291655   -0.457675    1.310391
     18          1           0        4.708399   -0.730892   -0.371682
     19          6           0        2.660160   -0.156651   -0.058484
     20          6           0        2.813784    1.324571   -0.266413
     21          1           0        3.545440    1.527253   -1.051704
     22          1           0        1.881711    1.815018   -0.535188
     23          1           0        3.190155    1.794765    0.644564
     24          6           0        1.510453   -0.834984   -0.233758
     25          1           0        1.524741   -1.902887   -0.030090
     26          6           0        0.175905   -0.271956   -0.622747
     27          1           0        0.287104    0.667818   -1.165187
     28          1           0       -0.327653   -0.961528   -1.305224
 ---------------------------------------------------------------------

 The electronic state is 1-A.
 Alpha  occ. eigenvalues --  -11.23028 -11.22456 -11.21863 -11.21726 -11.21721
 Alpha  occ. eigenvalues --  -11.21541 -11.21497 -11.21449 -11.21393 -11.21358
 Alpha  occ. eigenvalues --   -1.10803  -1.08495  -1.01828  -0.98138  -0.93839
 Alpha  occ. eigenvalues --   -0.91936  -0.86954  -0.82861  -0.70567  -0.69489
 Alpha  occ. eigenvalues --   -0.64754  -0.61539  -0.60720  -0.58828  -0.58414
 Alpha  occ. eigenvalues --   -0.56814  -0.55405  -0.54979  -0.53298  -0.52217
 Alpha  occ. eigenvalues --   -0.51714  -0.51214  -0.50653  -0.50166  -0.47383
 Alpha  occ. eigenvalues --   -0.46917  -0.44458  -0.33328  -0.31563
 Alpha virt. eigenvalues --    0.18100   0.19932   0.22053   0.24536   0.24955
 Alpha virt. eigenvalues --    0.27424   0.28601   0.28877   0.30353   0.30694
 Alpha virt. eigenvalues --    0.31966   0.32601   0.32969   0.33726   0.34466

 Mulliken charges:
               1
     1  C   -0.235696
     2  H    0.121814
     3  H    0.118365
     4  C    0.017883
     5  C   -0.340845
     6  H    0.118112
     7  H    0.111985
     8  H    0.118156
     9  C   -0.153908
    10  H    0.115552
    11  C   -0.353585
    12  H    0.120163
    13  H    0.120250
    14  H    0.115581
    15  C   -0.342746
    16  H    0.119226
    17  H    0.115688
    18  H    0.116299
    19  C    0.027041
    20  C   -0.348771
    21  H    0.120971
    22  H    0.118676
    23  H    0.119572
    24  C   -0.163245
    25  H    0.116321
    26  C   -0.234395
    27  H    0.118132
    28  H    0.123405
 Sum of Mulliken charges =  -0.00000

 Dipole moment (field-independent basis, Debye):
    X=              0.3626    Y=              0.1699    Z=              0.0498  Tot=              0.4035
 Quadrupole moment (field-independent basis, Debye-Ang):
   XX=            -63.7582   YY=            -63.7112   ZZ=            -67.3994
   XY=              1.0617   XZ=              1.2177   YZ=             -0.3674

 Normal termination of Gaussian 16 at Fri Sep 17 15:22:53 2021.
