 Gaussian 16, Revision A.03,
 Gaussian 16:  EM64L-G16RevA.03 25-Dec-2016

 ---------------------
 #p opt mp2/6-31g(d,p)
 ---------------------

 -------------------------------------------------
 Conformer number 890. Energy MM = 23.287 kcal/mol
 -------------------------------------------------
 Symbolic Z-matrix:
 Charge =  0 Multiplicity = 1

 SCF Done:  E(RHF) =  -389.155299597     A.U. after   12 cycles
 E2 =    -0.1416661054D+01 EUMP2 =    -0.39057196065149D+03
 SCF Done:  E(RHF) =  -389.157062033     A.U. after   10 cycles
 E2 =    -0.1416312181D+01 EUMP2 =    -0.39057337421332D+03
 SCF Done:  E(RHF) =  -389.157054638     A.U. after    9 cycles
 E2 =    -0.1416426648D+01 EUMP2 =    -0.39057348128640D+03
 SCF Done:  E(RHF) =  -389.156932690     A.U. after    9 cycles
 E2 =    -0.1416576504D+01 EUMP2 =    -0.39057350919355D+03
 SCF Done:  E(RHF) =  -389.156869246     A.U. after    9 cycles
 E2 =    -0.1416657061D+01 EUMP2 =    -0.39057352630661D+03
 SCF Done:  E(RHF) =  -389.156836760     A.U. after    9 cycles
 E2 =    -0.1416698000D+01 EUMP2 =    -0.39057353475922D+03
 SCF Done:  E(RHF) =  -389.156861235     A.U. after    8 cycles
 E2 =    -0.1416680442D+01 EUMP2 =    -0.39057354167766D+03
 SCF Done:  E(RHF) =  -389.156909520     A.U. after    8 cycles
 E2 =    -0.1416639278D+01 EUMP2 =    -0.39057354879864D+03
 SCF Done:  E(RHF) =  -389.156923049     A.U. after    8 cycles
 E2 =    -0.1416628225D+01 EUMP2 =    -0.39057355127376D+03
 SCF Done:  E(RHF) =  -389.156921388     A.U. after    8 cycles
 E2 =    -0.1416630716D+01 EUMP2 =    -0.39057355210351D+03
 SCF Done:  E(RHF) =  -389.156909067     A.U. after    8 cycles
 E2 =    -0.1416643477D+01 EUMP2 =    -0.39057355254369D+03
 SCF Done:  E(RHF) =  -389.156899917     A.U. after    7 cycles
 E2 =    -0.1416652764D+01 EUMP2 =    -0.39057355268089D+03
 SCF Done:  E(RHF) =  -389.156891773     A.U. after    7 cycles
 E2 =    -0.1416661036D+01 EUMP2 =    -0.39057355280917D+03
 SCF Done:  E(RHF) =  -389.156885257     A.U. after    8 cycles
 E2 =    -0.1416667630D+01 EUMP2 =    -0.39057355288707D+03
 SCF Done:  E(RHF) =  -389.156884805     A.U. after    7 cycles
 E2 =    -0.1416668104D+01 EUMP2 =    -0.39057355290864D+03
 SCF Done:  E(RHF) =  -389.156884230     A.U. after    7 cycles
 E2 =    -0.1416668691D+01 EUMP2 =    -0.39057355292196D+03
 SCF Done:  E(RHF) =  -389.156883430     A.U. after    7 cycles
 E2 =    -0.1416669503D+01 EUMP2 =    -0.39057355293280D+03
 SCF Done:  E(RHF) =  -389.156881500     A.U. after    7 cycles
 E2 =    -0.1416671446D+01 EUMP2 =    -0.39057355294534D+03
 SCF Done:  E(RHF) =  -389.156879201     A.U. after    7 cycles
 E2 =    -0.1416673753D+01 EUMP2 =    -0.39057355295446D+03
 Optimization completed.
    -- Stationary point found.

                         Standard orientation:
 ---------------------------------------------------------------------
 Center     Atomic      Atomic             Coordinates (Angstroms)
 Number     Number       Type             X           Y           Z
 ---------------------------------------------------------------------
      1          6           0        0.735171   -0.049077    0.599760
      2          1           0        0.858056   -0.995633    1.128939
      3          1           0        0.223414    0.624746    1.292497
      4          6           0        2.067656    0.543249    0.215792
      5          6           0        2.104157    2.045368    0.133365
      6          1           0        3.069529    2.403681   -0.221844
      7          1           0        1.333942    2.419913   -0.544717
      8          1           0        1.910794    2.492461    1.110903
      9          6           0        3.153235   -0.192401   -0.087705
     10          1           0        4.055792    0.338638   -0.377518
     11          6           0        3.263929   -1.686753   -0.074230
     12          1           0        3.542744   -2.060854   -1.061013
     13          1           0        4.039619   -2.014397    0.620459
     14          1           0        2.331807   -2.169073    0.210542
     15          6           0       -2.813788    1.324570   -0.266419
     16          1           0       -3.190164    1.794766    0.644556
     17          1           0       -3.545442    1.527247   -1.051713
     18          1           0       -1.881716    1.815018   -0.535192
     19          6           0       -2.660162   -0.156651   -0.058483
     20          6           0       -3.916378   -0.864527    0.368678
     21          1           0       -3.748900   -1.932404    0.500323
     22          1           0       -4.708399   -0.730897   -0.371683
     23          1           0       -4.291657   -0.457674    1.310390
     24          6           0       -1.510452   -0.834982   -0.233754
     25          1           0       -1.524739   -1.902884   -0.030082
     26          6           0       -0.175905   -0.271954   -0.622745
     27          1           0       -0.287105    0.667821   -1.165182
     28          1           0        0.327652   -0.961525   -1.305223
 ---------------------------------------------------------------------

 The electronic state is 1-A.
 Alpha  occ. eigenvalues --  -11.23028 -11.22456 -11.21863 -11.21726 -11.21721
 Alpha  occ. eigenvalues --  -11.21541 -11.21497 -11.21449 -11.21393 -11.21358
 Alpha  occ. eigenvalues --   -1.10803  -1.08495  -1.01828  -0.98138  -0.93839
 Alpha  occ. eigenvalues --   -0.91936  -0.86954  -0.82861  -0.70567  -0.69489
 Alpha  occ. eigenvalues --   -0.64754  -0.61539  -0.60720  -0.58828  -0.58414
 Alpha  occ. eigenvalues --   -0.56814  -0.55405  -0.54979  -0.53298  -0.52217
 Alpha  occ. eigenvalues --   -0.51714  -0.51214  -0.50653  -0.50166  -0.47383
 Alpha  occ. eigenvalues --   -0.46917  -0.44458  -0.33328  -0.31563
 Alpha virt. eigenvalues --    0.18100   0.19932   0.22053   0.24536   0.24955
 Alpha virt. eigenvalues --    0.27424   0.28601   0.28877   0.30353   0.30694
 Alpha virt. eigenvalues --    0.31966   0.32601   0.32969   0.33726   0.34466

 Mulliken charges:
               1
     1  C   -0.235696
     2  H    0.121814
     3  H    0.118365
     4  C    0.017883
     5  C   -0.340845
     6  H    0.118112
     7  H    0.111985
     8  H    0.118156
     9  C   -0.153908
    10  H    0.115552
    11  C   -0.353585
    12  H    0.120163
    13  H    0.120250
    14  H    0.115581
    15  C   -0.348771
    16  H    0.119572
    17  H    0.120971
    18  H    0.118676
    19  C    0.027041
    20  C   -0.342746
    21  H    0.119226
    22  H    0.116299
    23  H    0.115688
    24  C   -0.163245
    25  H    0.116321
    26  C   -0.234395
    27  H    0.118132
    28  H    0.123405
 Sum of Mulliken charges =  -0.00000

 Dipole moment (field-independent basis, Debye):
    X=             -0.3626    Y=              0.1699    Z=              0.0498  Tot=              0.4035
 Quadrupole moment (field-independent basis, Debye-Ang):
   XX=            -63.7582   YY=            -63.7112   ZZ=            -67.3994
   XY=             -1.0617   XZ=             -1.2177   YZ=             -0.3674

 Normal termination of Gaussian 16 at Fri Sep 17 17:51:24 2021.
