 Gaussian 16, Revision A.03,
 Gaussian 16:  EM64L-G16RevA.03 25-Dec-2016

 ---------------------
 #p opt mp2/6-31g(d,p)
 ---------------------

 -------------------------------------------------
 Conformer number 269. Energy MM = 23.287 kcal/mol
 -------------------------------------------------
 Symbolic Z-matrix:
 Charge =  0 Multiplicity = 1

 SCF Done:  E(RHF) =  -389.155299533     A.U. after   12 cycles
 E2 =    -0.1416660751D+01 EUMP2 =    -0.39057196028329D+03
 SCF Done:  E(RHF) =  -389.157061518     A.U. after   10 cycles
 E2 =    -0.1416312555D+01 EUMP2 =    -0.39057337407276D+03
 SCF Done:  E(RHF) =  -389.157054574     A.U. after    9 cycles
 E2 =    -0.1416426688D+01 EUMP2 =    -0.39057348126229D+03
 SCF Done:  E(RHF) =  -389.156932790     A.U. after    9 cycles
 E2 =    -0.1416576389D+01 EUMP2 =    -0.39057350917916D+03
 SCF Done:  E(RHF) =  -389.156869169     A.U. after    9 cycles
 E2 =    -0.1416657153D+01 EUMP2 =    -0.39057352632212D+03
 SCF Done:  E(RHF) =  -389.156836696     A.U. after    9 cycles
 E2 =    -0.1416698084D+01 EUMP2 =    -0.39057353478001D+03
 SCF Done:  E(RHF) =  -389.156861062     A.U. after    8 cycles
 E2 =    -0.1416680620D+01 EUMP2 =    -0.39057354168182D+03
 SCF Done:  E(RHF) =  -389.156909356     A.U. after    8 cycles
 E2 =    -0.1416639435D+01 EUMP2 =    -0.39057354879145D+03
 SCF Done:  E(RHF) =  -389.156923003     A.U. after    8 cycles
 E2 =    -0.1416628270D+01 EUMP2 =    -0.39057355127291D+03
 SCF Done:  E(RHF) =  -389.156921388     A.U. after    8 cycles
 E2 =    -0.1416630715D+01 EUMP2 =    -0.39057355210313D+03
 SCF Done:  E(RHF) =  -389.156909006     A.U. after    8 cycles
 E2 =    -0.1416643540D+01 EUMP2 =    -0.39057355254557D+03
 SCF Done:  E(RHF) =  -389.156899861     A.U. after    7 cycles
 E2 =    -0.1416652822D+01 EUMP2 =    -0.39057355268229D+03
 SCF Done:  E(RHF) =  -389.156891743     A.U. after    7 cycles
 E2 =    -0.1416661067D+01 EUMP2 =    -0.39057355280988D+03
 SCF Done:  E(RHF) =  -389.156885234     A.U. after    8 cycles
 E2 =    -0.1416667653D+01 EUMP2 =    -0.39057355288736D+03
 SCF Done:  E(RHF) =  -389.156884790     A.U. after    7 cycles
 E2 =    -0.1416668119D+01 EUMP2 =    -0.39057355290883D+03
 SCF Done:  E(RHF) =  -389.156884225     A.U. after    7 cycles
 E2 =    -0.1416668698D+01 EUMP2 =    -0.39057355292209D+03
 SCF Done:  E(RHF) =  -389.156883430     A.U. after    7 cycles
 E2 =    -0.1416669503D+01 EUMP2 =    -0.39057355293289D+03
 SCF Done:  E(RHF) =  -389.156881501     A.U. after    7 cycles
 E2 =    -0.1416671444D+01 EUMP2 =    -0.39057355294539D+03
 SCF Done:  E(RHF) =  -389.156879199     A.U. after    7 cycles
 E2 =    -0.1416673756D+01 EUMP2 =    -0.39057355295447D+03
 Optimization completed.
    -- Stationary point found.

                         Standard orientation:
 ---------------------------------------------------------------------
 Center     Atomic      Atomic             Coordinates (Angstroms)
 Number     Number       Type             X           Y           Z
 ---------------------------------------------------------------------
      1          6           0       -0.735171   -0.049076    0.599761
      2          1           0       -0.223414    0.624748    1.292497
      3          1           0       -0.858055   -0.995631    1.128942
      4          6           0       -2.067656    0.543249    0.215793
      5          6           0       -2.104158    2.045368    0.133365
      6          1           0       -1.910792    2.492462    1.110902
      7          1           0       -3.069532    2.403680   -0.221841
      8          1           0       -1.333945    2.419913   -0.544720
      9          6           0       -3.153234   -0.192402   -0.087706
     10          1           0       -4.055792    0.338636   -0.377519
     11          6           0       -3.263926   -1.686753   -0.074231
     12          1           0       -3.542741   -2.060855   -1.061014
     13          1           0       -4.039617   -2.014399    0.620457
     14          1           0       -2.331804   -2.169072    0.210542
     15          6           0        3.916378   -0.864526    0.368679
     16          1           0        3.748900   -1.932403    0.500324
     17          1           0        4.291657   -0.457672    1.310390
     18          1           0        4.708399   -0.730897   -0.371683
     19          6           0        2.660161   -0.156651   -0.058484
     20          6           0        2.813788    1.324570   -0.266421
     21          1           0        3.190163    1.794767    0.644553
     22          1           0        1.881715    1.815018   -0.535194
     23          1           0        3.545440    1.527246   -1.051716
     24          6           0        1.510452   -0.834983   -0.233753
     25          1           0        1.524739   -1.902884   -0.030080
     26          6           0        0.175905   -0.271955   -0.622744
     27          1           0       -0.327653   -0.961527   -1.305221
     28          1           0        0.287104    0.667819   -1.165183
 ---------------------------------------------------------------------

 The electronic state is 1-A.
 Alpha  occ. eigenvalues --  -11.23028 -11.22456 -11.21863 -11.21726 -11.21721
 Alpha  occ. eigenvalues --  -11.21541 -11.21497 -11.21449 -11.21393 -11.21358
 Alpha  occ. eigenvalues --   -1.10803  -1.08495  -1.01828  -0.98138  -0.93839
 Alpha  occ. eigenvalues --   -0.91936  -0.86954  -0.82861  -0.70567  -0.69489
 Alpha  occ. eigenvalues --   -0.64754  -0.61539  -0.60720  -0.58828  -0.58414
 Alpha  occ. eigenvalues --   -0.56814  -0.55405  -0.54979  -0.53298  -0.52217
 Alpha  occ. eigenvalues --   -0.51714  -0.51214  -0.50653  -0.50166  -0.47383
 Alpha  occ. eigenvalues --   -0.46917  -0.44458  -0.33328  -0.31563
 Alpha virt. eigenvalues --    0.18100   0.19932   0.22053   0.24536   0.24955
 Alpha virt. eigenvalues --    0.27424   0.28601   0.28877   0.30353   0.30694
 Alpha virt. eigenvalues --    0.31966   0.32601   0.32969   0.33726   0.34466

 Mulliken charges:
               1
     1  C   -0.235696
     2  H    0.118365
     3  H    0.121814
     4  C    0.017883
     5  C   -0.340845
     6  H    0.118156
     7  H    0.118112
     8  H    0.111985
     9  C   -0.153908
    10  H    0.115552
    11  C   -0.353585
    12  H    0.120163
    13  H    0.120250
    14  H    0.115581
    15  C   -0.342746
    16  H    0.119226
    17  H    0.115688
    18  H    0.116299
    19  C    0.027041
    20  C   -0.348771
    21  H    0.119572
    22  H    0.118676
    23  H    0.120971
    24  C   -0.163245
    25  H    0.116321
    26  C   -0.234395
    27  H    0.123405
    28  H    0.118132
 Sum of Mulliken charges =  -0.00000

 Dipole moment (field-independent basis, Debye):
    X=              0.3626    Y=              0.1699    Z=              0.0498  Tot=              0.4035
 Quadrupole moment (field-independent basis, Debye-Ang):
   XX=            -63.7582   YY=            -63.7112   ZZ=            -67.3994
   XY=              1.0617   XZ=              1.2177   YZ=             -0.3674

 Normal termination of Gaussian 16 at Fri Sep 17 15:51:33 2021.
