 Gaussian 16, Revision A.03,
 Gaussian 16:  EM64L-G16RevA.03 25-Dec-2016

 ---------------------
 #p opt mp2/6-31g(d,p)
 ---------------------

 -------------------------------------------------
 Conformer number 845. Energy MM = 23.287 kcal/mol
 -------------------------------------------------
 Symbolic Z-matrix:
 Charge =  0 Multiplicity = 1

 SCF Done:  E(RHF) =  -389.155299787     A.U. after   12 cycles
 E2 =    -0.1416658800D+01 EUMP2 =    -0.39057195858720D+03
 SCF Done:  E(RHF) =  -389.157061938     A.U. after   10 cycles
 E2 =    -0.1416312092D+01 EUMP2 =    -0.39057337402921D+03
 SCF Done:  E(RHF) =  -389.157054522     A.U. after    9 cycles
 E2 =    -0.1416426766D+01 EUMP2 =    -0.39057348128737D+03
 SCF Done:  E(RHF) =  -389.156932607     A.U. after    9 cycles
 E2 =    -0.1416576601D+01 EUMP2 =    -0.39057350920823D+03
 SCF Done:  E(RHF) =  -389.156869312     A.U. after    9 cycles
 E2 =    -0.1416656990D+01 EUMP2 =    -0.39057352630277D+03
 SCF Done:  E(RHF) =  -389.156836822     A.U. after    9 cycles
 E2 =    -0.1416697953D+01 EUMP2 =    -0.39057353477512D+03
 SCF Done:  E(RHF) =  -389.156861326     A.U. after    8 cycles
 E2 =    -0.1416680365D+01 EUMP2 =    -0.39057354169173D+03
 SCF Done:  E(RHF) =  -389.156909545     A.U. after    8 cycles
 E2 =    -0.1416639262D+01 EUMP2 =    -0.39057354880726D+03
 SCF Done:  E(RHF) =  -389.156922989     A.U. after    8 cycles
 E2 =    -0.1416628287D+01 EUMP2 =    -0.39057355127604D+03
 SCF Done:  E(RHF) =  -389.156921324     A.U. after    8 cycles
 E2 =    -0.1416630780D+01 EUMP2 =    -0.39057355210488D+03
 SCF Done:  E(RHF) =  -389.156909000     A.U. after    8 cycles
 E2 =    -0.1416643545D+01 EUMP2 =    -0.39057355254503D+03
 SCF Done:  E(RHF) =  -389.156899874     A.U. after    7 cycles
 E2 =    -0.1416652808D+01 EUMP2 =    -0.39057355268174D+03
 SCF Done:  E(RHF) =  -389.156891742     A.U. after    7 cycles
 E2 =    -0.1416661068D+01 EUMP2 =    -0.39057355280998D+03
 SCF Done:  E(RHF) =  -389.156885260     A.U. after    8 cycles
 E2 =    -0.1416667627D+01 EUMP2 =    -0.39057355288761D+03
 SCF Done:  E(RHF) =  -389.156884810     A.U. after    7 cycles
 E2 =    -0.1416668099D+01 EUMP2 =    -0.39057355290902D+03
 SCF Done:  E(RHF) =  -389.156884205     A.U. after    7 cycles
 E2 =    -0.1416668717D+01 EUMP2 =    -0.39057355292224D+03
 SCF Done:  E(RHF) =  -389.156883383     A.U. after    7 cycles
 E2 =    -0.1416669550D+01 EUMP2 =    -0.39057355293304D+03
 SCF Done:  E(RHF) =  -389.156881442     A.U. after    7 cycles
 E2 =    -0.1416671504D+01 EUMP2 =    -0.39057355294552D+03
 SCF Done:  E(RHF) =  -389.156879174     A.U. after    7 cycles
 E2 =    -0.1416673781D+01 EUMP2 =    -0.39057355295459D+03
 Optimization completed.
    -- Stationary point found.

                         Standard orientation:
 ---------------------------------------------------------------------
 Center     Atomic      Atomic             Coordinates (Angstroms)
 Number     Number       Type             X           Y           Z
 ---------------------------------------------------------------------
      1          6           0       -0.735168   -0.049077    0.599757
      2          1           0       -0.223410    0.624745    1.292492
      3          1           0       -0.858052   -0.995633    1.128936
      4          6           0       -2.067654    0.543249    0.215790
      5          6           0       -2.104153    2.045368    0.133360
      6          1           0       -1.333939    2.419911   -0.544725
      7          1           0       -3.069526    2.403681   -0.221848
      8          1           0       -1.910788    2.492463    1.110896
      9          6           0       -3.153234   -0.192400   -0.087702
     10          1           0       -4.055792    0.338639   -0.377514
     11          6           0       -3.263930   -1.686752   -0.074222
     12          1           0       -4.039617   -2.014393    0.620472
     13          1           0       -2.331807   -2.169072    0.210546
     14          1           0       -3.542751   -2.060855   -1.061003
     15          6           0        2.813783    1.324571   -0.266408
     16          1           0        3.190149    1.794763    0.644573
     17          1           0        3.545441    1.527256   -1.051695
     18          1           0        1.881710    1.815018   -0.535185
     19          6           0        2.660160   -0.156651   -0.058484
     20          6           0        3.916377   -0.864527    0.368677
     21          1           0        4.291654   -0.457678    1.310392
     22          1           0        4.708400   -0.730891   -0.371682
     23          1           0        3.748902   -1.932405    0.500315
     24          6           0        1.510453   -0.834985   -0.233761
     25          1           0        1.524742   -1.902888   -0.030097
     26          6           0        0.175905   -0.271956   -0.622750
     27          1           0        0.287105    0.667819   -1.165188
     28          1           0       -0.327653   -0.961527   -1.305227
 ---------------------------------------------------------------------

 The electronic state is 1-A.
 Alpha  occ. eigenvalues --  -11.23028 -11.22456 -11.21863 -11.21726 -11.21721
 Alpha  occ. eigenvalues --  -11.21541 -11.21497 -11.21449 -11.21393 -11.21358
 Alpha  occ. eigenvalues --   -1.10803  -1.08495  -1.01828  -0.98138  -0.93839
 Alpha  occ. eigenvalues --   -0.91936  -0.86954  -0.82861  -0.70567  -0.69489
 Alpha  occ. eigenvalues --   -0.64754  -0.61539  -0.60720  -0.58828  -0.58414
 Alpha  occ. eigenvalues --   -0.56814  -0.55405  -0.54979  -0.53298  -0.52217
 Alpha  occ. eigenvalues --   -0.51714  -0.51214  -0.50653  -0.50166  -0.47383
 Alpha  occ. eigenvalues --   -0.46917  -0.44458  -0.33328  -0.31563
 Alpha virt. eigenvalues --    0.18100   0.19932   0.22053   0.24536   0.24955
 Alpha virt. eigenvalues --    0.27424   0.28601   0.28877   0.30353   0.30694
 Alpha virt. eigenvalues --    0.31966   0.32601   0.32969   0.33726   0.34466

 Mulliken charges:
               1
     1  C   -0.235696
     2  H    0.118365
     3  H    0.121814
     4  C    0.017883
     5  C   -0.340845
     6  H    0.111985
     7  H    0.118112
     8  H    0.118156
     9  C   -0.153908
    10  H    0.115552
    11  C   -0.353585
    12  H    0.120250
    13  H    0.115581
    14  H    0.120162
    15  C   -0.348771
    16  H    0.119572
    17  H    0.120971
    18  H    0.118676
    19  C    0.027041
    20  C   -0.342746
    21  H    0.115688
    22  H    0.116299
    23  H    0.119226
    24  C   -0.163245
    25  H    0.116321
    26  C   -0.234395
    27  H    0.118132
    28  H    0.123405
 Sum of Mulliken charges =  -0.00000

 Dipole moment (field-independent basis, Debye):
    X=              0.3626    Y=              0.1699    Z=              0.0498  Tot=              0.4035
 Quadrupole moment (field-independent basis, Debye-Ang):
   XX=            -63.7582   YY=            -63.7112   ZZ=            -67.3994
   XY=              1.0617   XZ=              1.2177   YZ=             -0.3674

 Normal termination of Gaussian 16 at Fri Sep 17 17:50:50 2021.
