 Gaussian 16, Revision A.03,
 Gaussian 16:  EM64L-G16RevA.03 25-Dec-2016

 ---------------------
 #p opt mp2/6-31g(d,p)
 ---------------------

 -------------------------------------------------
 Conformer number 096. Energy MM = 23.242 kcal/mol
 -------------------------------------------------
 Symbolic Z-matrix:
 Charge =  0 Multiplicity = 1

 SCF Done:  E(RHF) =  -389.155213240     A.U. after   13 cycles
 E2 =    -0.1416939761D+01 EUMP2 =    -0.39057215300133D+03
 SCF Done:  E(RHF) =  -389.157043105     A.U. after   10 cycles
 E2 =    -0.1416584719D+01 EUMP2 =    -0.39057362782430D+03
 SCF Done:  E(RHF) =  -389.157029313     A.U. after   10 cycles
 E2 =    -0.1416744907D+01 EUMP2 =    -0.39057377421973D+03
 SCF Done:  E(RHF) =  -389.156867708     A.U. after   10 cycles
 E2 =    -0.1416945971D+01 EUMP2 =    -0.39057381367973D+03
 SCF Done:  E(RHF) =  -389.156787574     A.U. after    9 cycles
 E2 =    -0.1417044205D+01 EUMP2 =    -0.39057383177889D+03
 SCF Done:  E(RHF) =  -389.156773207     A.U. after    9 cycles
 E2 =    -0.1417073098D+01 EUMP2 =    -0.39057384630520D+03
 SCF Done:  E(RHF) =  -389.156760986     A.U. after    9 cycles
 E2 =    -0.1417091868D+01 EUMP2 =    -0.39057385285397D+03
 SCF Done:  E(RHF) =  -389.156781874     A.U. after    9 cycles
 E2 =    -0.1417078903D+01 EUMP2 =    -0.39057386077754D+03
 SCF Done:  E(RHF) =  -389.156771615     A.U. after    8 cycles
 E2 =    -0.1417092166D+01 EUMP2 =    -0.39057386378107D+03
 SCF Done:  E(RHF) =  -389.156767857     A.U. after    8 cycles
 E2 =    -0.1417096436D+01 EUMP2 =    -0.39057386429298D+03
 SCF Done:  E(RHF) =  -389.156757640     A.U. after    7 cycles
 E2 =    -0.1417106832D+01 EUMP2 =    -0.39057386447187D+03
 SCF Done:  E(RHF) =  -389.156754809     A.U. after    7 cycles
 E2 =    -0.1417109723D+01 EUMP2 =    -0.39057386453233D+03
 SCF Done:  E(RHF) =  -389.156753465     A.U. after    7 cycles
 E2 =    -0.1417111112D+01 EUMP2 =    -0.39057386457648D+03
 Optimization completed.
    -- Stationary point found.

                         Standard orientation:
 ---------------------------------------------------------------------
 Center     Atomic      Atomic             Coordinates (Angstroms)
 Number     Number       Type             X           Y           Z
 ---------------------------------------------------------------------
      1          6           0       -0.771610   -0.568571    0.573566
      2          1           0       -0.668090   -1.485505    1.160936
      3          1           0       -0.434186    0.245279    1.217235
      4          6           0       -2.214028   -0.393328    0.170067
      5          6           0       -2.980768   -1.666243   -0.064985
      6          1           0       -3.055792   -2.249823    0.855141
      7          1           0       -3.988690   -1.465697   -0.426086
      8          1           0       -2.476558   -2.296858   -0.800630
      9          6           0       -2.788609    0.807940   -0.026812
     10          1           0       -3.827904    0.823832   -0.343287
     11          6           0       -2.147311    2.151891    0.141931
     12          1           0       -1.106288    2.078473    0.448305
     13          1           0       -2.179293    2.713954   -0.793360
     14          1           0       -2.677198    2.747029    0.888115
     15          6           0        2.413474    1.449343   -0.261192
     16          1           0        1.404452    1.735289   -0.547291
     17          1           0        3.100659    1.803959   -1.032685
     18          1           0        2.667200    1.983661    0.656938
     19          6           0        2.568198   -0.032333   -0.057323
     20          6           0        3.939277   -0.466993    0.381610
     21          1           0        3.994268   -1.546769    0.511296
     22          1           0        4.213774    0.006269    1.327064
     23          1           0        4.693643   -0.171278   -0.351042
     24          6           0        1.584556   -0.932199   -0.245618
     25          1           0        1.815014   -1.975142   -0.043152
     26          6           0        0.167065   -0.648290   -0.645620
     27          1           0        0.088873    0.283853   -1.206538
     28          1           0       -0.185347   -1.437830   -1.314703
 ---------------------------------------------------------------------

 The electronic state is 1-A.
 Alpha  occ. eigenvalues --  -11.23020 -11.22460 -11.21868 -11.21729 -11.21712
 Alpha  occ. eigenvalues --  -11.21539 -11.21506 -11.21436 -11.21417 -11.21348
 Alpha  occ. eigenvalues --   -1.10821  -1.08492  -1.01823  -0.98143  -0.93838
 Alpha  occ. eigenvalues --   -0.91939  -0.86963  -0.82855  -0.70494  -0.69519
 Alpha  occ. eigenvalues --   -0.64988  -0.61512  -0.60591  -0.58878  -0.58366
 Alpha  occ. eigenvalues --   -0.56774  -0.55298  -0.54966  -0.53295  -0.52261
 Alpha  occ. eigenvalues --   -0.51859  -0.51173  -0.50832  -0.49581  -0.48519
 Alpha  occ. eigenvalues --   -0.46073  -0.44624  -0.33371  -0.31514
 Alpha virt. eigenvalues --    0.18142   0.19779   0.22152   0.24486   0.25192
 Alpha virt. eigenvalues --    0.27439   0.28535   0.28922   0.30318   0.30811
 Alpha virt. eigenvalues --    0.31477   0.32261   0.33202   0.33794   0.34383

 Mulliken charges:
               1
     1  C   -0.236021
     2  H    0.115272
     3  H    0.125346
     4  C    0.018322
     5  C   -0.341505
     6  H    0.117845
     7  H    0.117792
     8  H    0.114461
     9  C   -0.154256
    10  H    0.115801
    11  C   -0.355567
    12  H    0.116140
    13  H    0.119588
    14  H    0.120829
    15  C   -0.350727
    16  H    0.120474
    17  H    0.121058
    18  H    0.119352
    19  C    0.027221
    20  C   -0.342631
    21  H    0.119222
    22  H    0.115672
    23  H    0.116356
    24  C   -0.163542
    25  H    0.116803
    26  C   -0.235486
    27  H    0.123802
    28  H    0.118380
 Sum of Mulliken charges =  -0.00000

 Dipole moment (field-independent basis, Debye):
    X=              0.3027    Y=              0.1253    Z=              0.0460  Tot=              0.3308
 Quadrupole moment (field-independent basis, Debye-Ang):
   XX=            -64.3024   YY=            -63.2901   ZZ=            -67.3956
   XY=              0.7521   XZ=              1.2367   YZ=             -0.3487

 Normal termination of Gaussian 16 at Fri Sep 17 14:15:40 2021.
