 Gaussian 16, Revision A.03,
 Gaussian 16:  EM64L-G16RevA.03 25-Dec-2016

 ---------------------
 #p opt mp2/6-31g(d,p)
 ---------------------

 -------------------------------------------------
 Conformer number 523. Energy MM = 23.287 kcal/mol
 -------------------------------------------------
 Symbolic Z-matrix:
 Charge =  0 Multiplicity = 1

 SCF Done:  E(RHF) =  -389.155301042     A.U. after   12 cycles
 E2 =    -0.1416659213D+01 EUMP2 =    -0.39057196025559D+03
 SCF Done:  E(RHF) =  -389.157061464     A.U. after   10 cycles
 E2 =    -0.1416312538D+01 EUMP2 =    -0.39057337400216D+03
 SCF Done:  E(RHF) =  -389.157054689     A.U. after    9 cycles
 E2 =    -0.1416426593D+01 EUMP2 =    -0.39057348128221D+03
 SCF Done:  E(RHF) =  -389.156932859     A.U. after    9 cycles
 E2 =    -0.1416576345D+01 EUMP2 =    -0.39057350920442D+03
 SCF Done:  E(RHF) =  -389.156869381     A.U. after    9 cycles
 E2 =    -0.1416656935D+01 EUMP2 =    -0.39057352631614D+03
 SCF Done:  E(RHF) =  -389.156836910     A.U. after    9 cycles
 E2 =    -0.1416697868D+01 EUMP2 =    -0.39057353477791D+03
 SCF Done:  E(RHF) =  -389.156861306     A.U. after    8 cycles
 E2 =    -0.1416680377D+01 EUMP2 =    -0.39057354168319D+03
 SCF Done:  E(RHF) =  -389.156909518     A.U. after    8 cycles
 E2 =    -0.1416639272D+01 EUMP2 =    -0.39057354879047D+03
 SCF Done:  E(RHF) =  -389.156923094     A.U. after    8 cycles
 E2 =    -0.1416628177D+01 EUMP2 =    -0.39057355127068D+03
 SCF Done:  E(RHF) =  -389.156921464     A.U. after    8 cycles
 E2 =    -0.1416630636D+01 EUMP2 =    -0.39057355210030D+03
 SCF Done:  E(RHF) =  -389.156909063     A.U. after    8 cycles
 E2 =    -0.1416643481D+01 EUMP2 =    -0.39057355254420D+03
 SCF Done:  E(RHF) =  -389.156899904     A.U. after    7 cycles
 E2 =    -0.1416652777D+01 EUMP2 =    -0.39057355268131D+03
 SCF Done:  E(RHF) =  -389.156891774     A.U. after    7 cycles
 E2 =    -0.1416661035D+01 EUMP2 =    -0.39057355280954D+03
 SCF Done:  E(RHF) =  -389.156885278     A.U. after    8 cycles
 E2 =    -0.1416667610D+01 EUMP2 =    -0.39057355288719D+03
 SCF Done:  E(RHF) =  -389.156884829     A.U. after    7 cycles
 E2 =    -0.1416668080D+01 EUMP2 =    -0.39057355290876D+03
 SCF Done:  E(RHF) =  -389.156884222     A.U. after    7 cycles
 E2 =    -0.1416668700D+01 EUMP2 =    -0.39057355292203D+03
 SCF Done:  E(RHF) =  -389.156883399     A.U. after    7 cycles
 E2 =    -0.1416669534D+01 EUMP2 =    -0.39057355293291D+03
 SCF Done:  E(RHF) =  -389.156881452     A.U. after    7 cycles
 E2 =    -0.1416671493D+01 EUMP2 =    -0.39057355294546D+03
 SCF Done:  E(RHF) =  -389.156879179     A.U. after    7 cycles
 E2 =    -0.1416673775D+01 EUMP2 =    -0.39057355295457D+03
 Optimization completed.
    -- Stationary point found.

                         Standard orientation:
 ---------------------------------------------------------------------
 Center     Atomic      Atomic             Coordinates (Angstroms)
 Number     Number       Type             X           Y           Z
 ---------------------------------------------------------------------
      1          6           0       -0.735168   -0.049077    0.599757
      2          1           0       -0.223410    0.624745    1.292492
      3          1           0       -0.858052   -0.995633    1.128936
      4          6           0       -2.067654    0.543249    0.215790
      5          6           0       -2.104153    2.045368    0.133359
      6          1           0       -1.333938    2.419911   -0.544725
      7          1           0       -3.069525    2.403681   -0.221849
      8          1           0       -1.910789    2.492463    1.110896
      9          6           0       -3.153234   -0.192400   -0.087702
     10          1           0       -4.055792    0.338639   -0.377514
     11          6           0       -3.263930   -1.686752   -0.074221
     12          1           0       -2.331808   -2.169072    0.210546
     13          1           0       -3.542752   -2.060855   -1.061002
     14          1           0       -4.039617   -2.014393    0.620473
     15          6           0        3.916377   -0.864527    0.368677
     16          1           0        4.708400   -0.730890   -0.371682
     17          1           0        4.291654   -0.457679    1.310392
     18          1           0        3.748902   -1.932405    0.500314
     19          6           0        2.660160   -0.156651   -0.058484
     20          6           0        2.813783    1.324571   -0.266407
     21          1           0        3.190150    1.794763    0.644573
     22          1           0        1.881710    1.815018   -0.535183
     23          1           0        3.545440    1.527257   -1.051695
     24          6           0        1.510453   -0.834985   -0.233762
     25          1           0        1.524742   -1.902888   -0.030098
     26          6           0        0.175905   -0.271956   -0.622750
     27          1           0        0.287105    0.667819   -1.165188
     28          1           0       -0.327653   -0.961527   -1.305227
 ---------------------------------------------------------------------

 The electronic state is 1-A.
 Alpha  occ. eigenvalues --  -11.23028 -11.22456 -11.21863 -11.21726 -11.21721
 Alpha  occ. eigenvalues --  -11.21541 -11.21497 -11.21449 -11.21393 -11.21358
 Alpha  occ. eigenvalues --   -1.10803  -1.08495  -1.01828  -0.98138  -0.93839
 Alpha  occ. eigenvalues --   -0.91936  -0.86954  -0.82861  -0.70567  -0.69489
 Alpha  occ. eigenvalues --   -0.64754  -0.61539  -0.60720  -0.58828  -0.58414
 Alpha  occ. eigenvalues --   -0.56814  -0.55405  -0.54979  -0.53298  -0.52217
 Alpha  occ. eigenvalues --   -0.51714  -0.51214  -0.50653  -0.50166  -0.47383
 Alpha  occ. eigenvalues --   -0.46917  -0.44458  -0.33328  -0.31563
 Alpha virt. eigenvalues --    0.18100   0.19932   0.22053   0.24536   0.24955
 Alpha virt. eigenvalues --    0.27424   0.28601   0.28877   0.30353   0.30694
 Alpha virt. eigenvalues --    0.31966   0.32601   0.32969   0.33726   0.34466

 Mulliken charges:
               1
     1  C   -0.235696
     2  H    0.118365
     3  H    0.121814
     4  C    0.017883
     5  C   -0.340845
     6  H    0.111985
     7  H    0.118112
     8  H    0.118156
     9  C   -0.153908
    10  H    0.115552
    11  C   -0.353585
    12  H    0.115581
    13  H    0.120162
    14  H    0.120250
    15  C   -0.342746
    16  H    0.116299
    17  H    0.115688
    18  H    0.119226
    19  C    0.027041
    20  C   -0.348771
    21  H    0.119572
    22  H    0.118676
    23  H    0.120971
    24  C   -0.163245
    25  H    0.116321
    26  C   -0.234395
    27  H    0.118132
    28  H    0.123405
 Sum of Mulliken charges =  -0.00000

 Dipole moment (field-independent basis, Debye):
    X=              0.3626    Y=              0.1699    Z=              0.0498  Tot=              0.4035
 Quadrupole moment (field-independent basis, Debye-Ang):
   XX=            -63.7582   YY=            -63.7112   ZZ=            -67.3994
   XY=              1.0617   XZ=              1.2177   YZ=             -0.3674

 Normal termination of Gaussian 16 at Fri Sep 17 16:57:34 2021.
