 Gaussian 16, Revision A.03,
 Gaussian 16:  EM64L-G16RevA.03 25-Dec-2016

 ---------------------
 #p opt mp2/6-31g(d,p)
 ---------------------

 --------------------------------------------------
 Conformer number 2061. Energy MM = 23.242 kcal/mol
 --------------------------------------------------
 Symbolic Z-matrix:
 Charge =  0 Multiplicity = 1

 SCF Done:  E(RHF) =  -389.155211041     A.U. after   13 cycles
 E2 =    -0.1416942332D+01 EUMP2 =    -0.39057215337300D+03
 SCF Done:  E(RHF) =  -389.157042628     A.U. after   10 cycles
 E2 =    -0.1416585389D+01 EUMP2 =    -0.39057362801750D+03
 SCF Done:  E(RHF) =  -389.157029377     A.U. after   10 cycles
 E2 =    -0.1416744812D+01 EUMP2 =    -0.39057377418919D+03
 SCF Done:  E(RHF) =  -389.156867929     A.U. after   10 cycles
 E2 =    -0.1416945694D+01 EUMP2 =    -0.39057381362302D+03
 SCF Done:  E(RHF) =  -389.156787397     A.U. after    9 cycles
 E2 =    -0.1417044378D+01 EUMP2 =    -0.39057383177446D+03
 SCF Done:  E(RHF) =  -389.156772853     A.U. after    9 cycles
 E2 =    -0.1417073437D+01 EUMP2 =    -0.39057384628986D+03
 SCF Done:  E(RHF) =  -389.156760531     A.U. after    9 cycles
 E2 =    -0.1417092308D+01 EUMP2 =    -0.39057385283879D+03
 SCF Done:  E(RHF) =  -389.156781659     A.U. after    9 cycles
 E2 =    -0.1417079135D+01 EUMP2 =    -0.39057386079349D+03
 SCF Done:  E(RHF) =  -389.156771580     A.U. after    8 cycles
 E2 =    -0.1417092202D+01 EUMP2 =    -0.39057386378203D+03
 SCF Done:  E(RHF) =  -389.156767818     A.U. after    8 cycles
 E2 =    -0.1417096474D+01 EUMP2 =    -0.39057386429239D+03
 SCF Done:  E(RHF) =  -389.156757635     A.U. after    7 cycles
 E2 =    -0.1417106836D+01 EUMP2 =    -0.39057386447107D+03
 SCF Done:  E(RHF) =  -389.156754813     A.U. after    7 cycles
 E2 =    -0.1417109718D+01 EUMP2 =    -0.39057386453160D+03
 SCF Done:  E(RHF) =  -389.156753445     A.U. after    7 cycles
 E2 =    -0.1417111131D+01 EUMP2 =    -0.39057386457629D+03
 Optimization completed.
    -- Stationary point found.

                         Standard orientation:
 ---------------------------------------------------------------------
 Center     Atomic      Atomic             Coordinates (Angstroms)
 Number     Number       Type             X           Y           Z
 ---------------------------------------------------------------------
      1          6           0        0.771608   -0.568568    0.573566
      2          1           0        0.668087   -1.485499    1.160941
      3          1           0        0.434182    0.245285    1.217229
      4          6           0        2.214026   -0.393329    0.170068
      5          6           0        2.980764   -1.666245   -0.064984
      6          1           0        2.476558   -2.296855   -0.800636
      7          1           0        3.055781   -2.249828    0.855140
      8          1           0        3.988689   -1.465700   -0.426077
      9          6           0        2.788610    0.807939   -0.026812
     10          1           0        3.827906    0.823828   -0.343286
     11          6           0        2.147315    2.151891    0.141930
     12          1           0        2.677199    2.747026    0.888119
     13          1           0        2.179304    2.713956   -0.793359
     14          1           0        1.106289    2.078476    0.448297
     15          6           0       -2.413472    1.449343   -0.261194
     16          1           0       -2.667186    1.983663    0.656939
     17          1           0       -1.404452    1.735287   -0.547304
     18          1           0       -3.100664    1.803961   -1.032680
     19          6           0       -2.568197   -0.032332   -0.057324
     20          6           0       -3.939276   -0.466989    0.381612
     21          1           0       -3.994268   -1.546765    0.511304
     22          1           0       -4.693642   -0.171277   -0.351041
     23          1           0       -4.213772    0.006276    1.327064
     24          6           0       -1.584557   -0.932200   -0.245618
     25          1           0       -1.815017   -1.975142   -0.043150
     26          6           0       -0.167066   -0.648294   -0.645621
     27          1           0        0.185347   -1.437838   -1.314700
     28          1           0       -0.088872    0.283846   -1.206544
 ---------------------------------------------------------------------

 The electronic state is 1-A.
 Alpha  occ. eigenvalues --  -11.23020 -11.22460 -11.21868 -11.21730 -11.21712
 Alpha  occ. eigenvalues --  -11.21539 -11.21506 -11.21436 -11.21417 -11.21348
 Alpha  occ. eigenvalues --   -1.10821  -1.08492  -1.01823  -0.98143  -0.93838
 Alpha  occ. eigenvalues --   -0.91939  -0.86963  -0.82855  -0.70494  -0.69519
 Alpha  occ. eigenvalues --   -0.64988  -0.61512  -0.60591  -0.58878  -0.58366
 Alpha  occ. eigenvalues --   -0.56774  -0.55298  -0.54966  -0.53295  -0.52261
 Alpha  occ. eigenvalues --   -0.51859  -0.51173  -0.50832  -0.49581  -0.48519
 Alpha  occ. eigenvalues --   -0.46073  -0.44624  -0.33371  -0.31514
 Alpha virt. eigenvalues --    0.18142   0.19779   0.22152   0.24486   0.25192
 Alpha virt. eigenvalues --    0.27439   0.28535   0.28922   0.30318   0.30811
 Alpha virt. eigenvalues --    0.31477   0.32261   0.33202   0.33794   0.34383

 Mulliken charges:
               1
     1  C   -0.236021
     2  H    0.115272
     3  H    0.125346
     4  C    0.018322
     5  C   -0.341505
     6  H    0.114461
     7  H    0.117844
     8  H    0.117792
     9  C   -0.154256
    10  H    0.115801
    11  C   -0.355567
    12  H    0.120830
    13  H    0.119588
    14  H    0.116140
    15  C   -0.350727
    16  H    0.119352
    17  H    0.120474
    18  H    0.121058
    19  C    0.027222
    20  C   -0.342631
    21  H    0.119222
    22  H    0.116356
    23  H    0.115672
    24  C   -0.163542
    25  H    0.116803
    26  C   -0.235486
    27  H    0.118380
    28  H    0.123802
 Sum of Mulliken charges =  -0.00000

 Dipole moment (field-independent basis, Debye):
    X=             -0.3027    Y=              0.1253    Z=              0.0460  Tot=              0.3308
 Quadrupole moment (field-independent basis, Debye-Ang):
   XX=            -64.3024   YY=            -63.2901   ZZ=            -67.3956
   XY=             -0.7521   XZ=             -1.2367   YZ=             -0.3487

 Normal termination of Gaussian 16 at Fri Sep 17 14:54:00 2021.
