 Gaussian 16, Revision A.03,
 Gaussian 16:  EM64L-G16RevA.03 25-Dec-2016

 ---------------------
 #p opt mp2/6-31g(d,p)
 ---------------------

 -------------------------------------------------
 Conformer number 470. Energy MM = 23.242 kcal/mol
 -------------------------------------------------
 Symbolic Z-matrix:
 Charge =  0 Multiplicity = 1

 SCF Done:  E(RHF) =  -389.155203563     A.U. after   13 cycles
 E2 =    -0.1416946017D+01 EUMP2 =    -0.39057214958009D+03
 SCF Done:  E(RHF) =  -389.157042945     A.U. after   10 cycles
 E2 =    -0.1416584814D+01 EUMP2 =    -0.39057362775934D+03
 SCF Done:  E(RHF) =  -389.157029449     A.U. after   10 cycles
 E2 =    -0.1416744714D+01 EUMP2 =    -0.39057377416253D+03
 SCF Done:  E(RHF) =  -389.156867785     A.U. after   10 cycles
 E2 =    -0.1416945858D+01 EUMP2 =    -0.39057381364320D+03
 SCF Done:  E(RHF) =  -389.156787548     A.U. after    9 cycles
 E2 =    -0.1417044196D+01 EUMP2 =    -0.39057383174417D+03
 SCF Done:  E(RHF) =  -389.156773040     A.U. after    9 cycles
 E2 =    -0.1417073232D+01 EUMP2 =    -0.39057384627130D+03
 SCF Done:  E(RHF) =  -389.156760697     A.U. after    9 cycles
 E2 =    -0.1417092133D+01 EUMP2 =    -0.39057385282946D+03
 SCF Done:  E(RHF) =  -389.156781675     A.U. after    9 cycles
 E2 =    -0.1417079098D+01 EUMP2 =    -0.39057386077284D+03
 SCF Done:  E(RHF) =  -389.156771473     A.U. after    8 cycles
 E2 =    -0.1417092306D+01 EUMP2 =    -0.39057386377916D+03
 SCF Done:  E(RHF) =  -389.156767761     A.U. after    8 cycles
 E2 =    -0.1417096530D+01 EUMP2 =    -0.39057386429079D+03
 SCF Done:  E(RHF) =  -389.156757577     A.U. after    7 cycles
 E2 =    -0.1417106894D+01 EUMP2 =    -0.39057386447050D+03
 SCF Done:  E(RHF) =  -389.156754744     A.U. after    7 cycles
 E2 =    -0.1417109788D+01 EUMP2 =    -0.39057386453140D+03
 SCF Done:  E(RHF) =  -389.156753405     A.U. after    7 cycles
 E2 =    -0.1417111172D+01 EUMP2 =    -0.39057386457620D+03
 Optimization completed.
    -- Stationary point found.

                         Standard orientation:
 ---------------------------------------------------------------------
 Center     Atomic      Atomic             Coordinates (Angstroms)
 Number     Number       Type             X           Y           Z
 ---------------------------------------------------------------------
      1          6           0       -0.771604   -0.568566    0.573564
      2          1           0       -0.668080   -1.485494    1.160943
      3          1           0       -0.434177    0.245290    1.217223
      4          6           0       -2.214023   -0.393329    0.170069
      5          6           0       -2.980761   -1.666247   -0.064974
      6          1           0       -3.055777   -2.249825    0.855153
      7          1           0       -3.988687   -1.465705   -0.426067
      8          1           0       -2.476555   -2.296861   -0.800622
      9          6           0       -2.788609    0.807937   -0.026813
     10          1           0       -3.827906    0.823825   -0.343284
     11          6           0       -2.147315    2.151891    0.141921
     12          1           0       -1.106287    2.078478    0.448282
     13          1           0       -2.179311    2.713954   -0.793369
     14          1           0       -2.677196    2.747027    0.888112
     15          6           0        2.413462    1.449345   -0.261181
     16          1           0        1.404438    1.735285   -0.547281
     17          1           0        3.100647    1.803972   -1.032668
     18          1           0        2.667180    1.983658    0.656954
     19          6           0        2.568195   -0.032331   -0.057323
     20          6           0        3.939276   -0.466986    0.381608
     21          1           0        4.693641   -0.171261   -0.351042
     22          1           0        3.994275   -1.546762    0.511287
     23          1           0        4.213770    0.006271    1.327065
     24          6           0        1.584559   -0.932202   -0.245625
     25          1           0        1.815023   -1.975145   -0.043168
     26          6           0        0.167067   -0.648297   -0.645625
     27          1           0       -0.185349   -1.437843   -1.314700
     28          1           0        0.088872    0.283842   -1.206551
 ---------------------------------------------------------------------

 The electronic state is 1-A.
 Alpha  occ. eigenvalues --  -11.23020 -11.22460 -11.21868 -11.21730 -11.21712
 Alpha  occ. eigenvalues --  -11.21539 -11.21506 -11.21436 -11.21417 -11.21348
 Alpha  occ. eigenvalues --   -1.10821  -1.08492  -1.01823  -0.98143  -0.93838
 Alpha  occ. eigenvalues --   -0.91939  -0.86963  -0.82855  -0.70494  -0.69519
 Alpha  occ. eigenvalues --   -0.64988  -0.61512  -0.60591  -0.58878  -0.58366
 Alpha  occ. eigenvalues --   -0.56774  -0.55298  -0.54966  -0.53295  -0.52261
 Alpha  occ. eigenvalues --   -0.51859  -0.51173  -0.50832  -0.49581  -0.48519
 Alpha  occ. eigenvalues --   -0.46073  -0.44624  -0.33371  -0.31514
 Alpha virt. eigenvalues --    0.18142   0.19779   0.22152   0.24486   0.25192
 Alpha virt. eigenvalues --    0.27439   0.28535   0.28922   0.30318   0.30811
 Alpha virt. eigenvalues --    0.31477   0.32261   0.33202   0.33794   0.34383

 Mulliken charges:
               1
     1  C   -0.236021
     2  H    0.115272
     3  H    0.125346
     4  C    0.018322
     5  C   -0.341505
     6  H    0.117844
     7  H    0.117792
     8  H    0.114461
     9  C   -0.154256
    10  H    0.115801
    11  C   -0.355567
    12  H    0.116140
    13  H    0.119588
    14  H    0.120830
    15  C   -0.350727
    16  H    0.120474
    17  H    0.121058
    18  H    0.119352
    19  C    0.027222
    20  C   -0.342631
    21  H    0.116356
    22  H    0.119222
    23  H    0.115672
    24  C   -0.163543
    25  H    0.116803
    26  C   -0.235486
    27  H    0.118380
    28  H    0.123802
 Sum of Mulliken charges =  -0.00000

 Dipole moment (field-independent basis, Debye):
    X=              0.3027    Y=              0.1253    Z=              0.0460  Tot=              0.3308
 Quadrupole moment (field-independent basis, Debye-Ang):
   XX=            -64.3023   YY=            -63.2901   ZZ=            -67.3956
   XY=              0.7521   XZ=              1.2367   YZ=             -0.3487

 Normal termination of Gaussian 16 at Fri Sep 17 16:40:25 2021.
