 Gaussian 16, Revision A.03,
 Gaussian 16:  EM64L-G16RevA.03 25-Dec-2016

 ---------------------
 #p opt mp2/6-31g(d,p)
 ---------------------

 -------------------------------------------------
 Conformer number 801. Energy MM = 23.287 kcal/mol
 -------------------------------------------------
 Symbolic Z-matrix:
 Charge =  0 Multiplicity = 1

 SCF Done:  E(RHF) =  -389.155303924     A.U. after   12 cycles
 E2 =    -0.1416657244D+01 EUMP2 =    -0.39057196116717D+03
 SCF Done:  E(RHF) =  -389.157061804     A.U. after   10 cycles
 E2 =    -0.1416312036D+01 EUMP2 =    -0.39057337384003D+03
 SCF Done:  E(RHF) =  -389.157054784     A.U. after    9 cycles
 E2 =    -0.1416426473D+01 EUMP2 =    -0.39057348125728D+03
 SCF Done:  E(RHF) =  -389.156932763     A.U. after    9 cycles
 E2 =    -0.1416576426D+01 EUMP2 =    -0.39057350918863D+03
 SCF Done:  E(RHF) =  -389.156869355     A.U. after    9 cycles
 E2 =    -0.1416656936D+01 EUMP2 =    -0.39057352629139D+03
 SCF Done:  E(RHF) =  -389.156836790     A.U. after    9 cycles
 E2 =    -0.1416697947D+01 EUMP2 =    -0.39057353473620D+03
 SCF Done:  E(RHF) =  -389.156861261     A.U. after    8 cycles
 E2 =    -0.1416680385D+01 EUMP2 =    -0.39057354164583D+03
 SCF Done:  E(RHF) =  -389.156909553     A.U. after    8 cycles
 E2 =    -0.1416639231D+01 EUMP2 =    -0.39057354878420D+03
 SCF Done:  E(RHF) =  -389.156923108     A.U. after    8 cycles
 E2 =    -0.1416628157D+01 EUMP2 =    -0.39057355126483D+03
 SCF Done:  E(RHF) =  -389.156921438     A.U. after    8 cycles
 E2 =    -0.1416630662D+01 EUMP2 =    -0.39057355209974D+03
 SCF Done:  E(RHF) =  -389.156909080     A.U. after    8 cycles
 E2 =    -0.1416643463D+01 EUMP2 =    -0.39057355254302D+03
 SCF Done:  E(RHF) =  -389.156899907     A.U. after    7 cycles
 E2 =    -0.1416652773D+01 EUMP2 =    -0.39057355268080D+03
 SCF Done:  E(RHF) =  -389.156891768     A.U. after    7 cycles
 E2 =    -0.1416661041D+01 EUMP2 =    -0.39057355280934D+03
 SCF Done:  E(RHF) =  -389.156885274     A.U. after    8 cycles
 E2 =    -0.1416667613D+01 EUMP2 =    -0.39057355288703D+03
 SCF Done:  E(RHF) =  -389.156884822     A.U. after    7 cycles
 E2 =    -0.1416668087D+01 EUMP2 =    -0.39057355290859D+03
 SCF Done:  E(RHF) =  -389.156884246     A.U. after    7 cycles
 E2 =    -0.1416668676D+01 EUMP2 =    -0.39057355292188D+03
 SCF Done:  E(RHF) =  -389.156883441     A.U. after    7 cycles
 E2 =    -0.1416669492D+01 EUMP2 =    -0.39057355293276D+03
 SCF Done:  E(RHF) =  -389.156881504     A.U. after    7 cycles
 E2 =    -0.1416671441D+01 EUMP2 =    -0.39057355294535D+03
 SCF Done:  E(RHF) =  -389.156879205     A.U. after    7 cycles
 E2 =    -0.1416673749D+01 EUMP2 =    -0.39057355295448D+03
 Optimization completed.
    -- Stationary point found.

                         Standard orientation:
 ---------------------------------------------------------------------
 Center     Atomic      Atomic             Coordinates (Angstroms)
 Number     Number       Type             X           Y           Z
 ---------------------------------------------------------------------
      1          6           0       -0.735171   -0.049078    0.599759
      2          1           0       -0.223414    0.624743    1.292497
      3          1           0       -0.858056   -0.995635    1.128935
      4          6           0       -2.067655    0.543249    0.215791
      5          6           0       -2.104155    2.045368    0.133364
      6          1           0       -3.069526    2.403681   -0.221848
      7          1           0       -1.333937    2.419913   -0.544715
      8          1           0       -1.910796    2.492461    1.110902
      9          6           0       -3.153236   -0.192400   -0.087704
     10          1           0       -4.055793    0.338639   -0.377517
     11          6           0       -3.263932   -1.686752   -0.074227
     12          1           0       -3.542749   -2.060853   -1.061010
     13          1           0       -2.331811   -2.169073    0.210543
     14          1           0       -4.039621   -2.014394    0.620462
     15          6           0        3.916378   -0.864529    0.368678
     16          1           0        4.708400   -0.730896   -0.371682
     17          1           0        4.291656   -0.457679    1.310392
     18          1           0        3.748900   -1.932406    0.500318
     19          6           0        2.660162   -0.156651   -0.058483
     20          6           0        2.813789    1.324570   -0.266415
     21          1           0        3.545443    1.527249   -1.051708
     22          1           0        1.881717    1.815019   -0.535188
     23          1           0        3.190163    1.794764    0.644561
     24          6           0        1.510453   -0.834982   -0.233757
     25          1           0        1.524739   -1.902885   -0.030087
     26          6           0        0.175906   -0.271953   -0.622746
     27          1           0       -0.327651   -0.961522   -1.305226
     28          1           0        0.287106    0.667824   -1.165182
 ---------------------------------------------------------------------

 The electronic state is 1-A.
 Alpha  occ. eigenvalues --  -11.23028 -11.22456 -11.21863 -11.21726 -11.21721
 Alpha  occ. eigenvalues --  -11.21541 -11.21497 -11.21449 -11.21393 -11.21358
 Alpha  occ. eigenvalues --   -1.10803  -1.08495  -1.01828  -0.98138  -0.93839
 Alpha  occ. eigenvalues --   -0.91936  -0.86954  -0.82861  -0.70567  -0.69489
 Alpha  occ. eigenvalues --   -0.64754  -0.61539  -0.60720  -0.58828  -0.58414
 Alpha  occ. eigenvalues --   -0.56814  -0.55405  -0.54979  -0.53298  -0.52217
 Alpha  occ. eigenvalues --   -0.51714  -0.51214  -0.50653  -0.50166  -0.47383
 Alpha  occ. eigenvalues --   -0.46917  -0.44458  -0.33328  -0.31563
 Alpha virt. eigenvalues --    0.18100   0.19932   0.22053   0.24536   0.24955
 Alpha virt. eigenvalues --    0.27424   0.28601   0.28877   0.30353   0.30694
 Alpha virt. eigenvalues --    0.31966   0.32601   0.32969   0.33726   0.34466

 Mulliken charges:
               1
     1  C   -0.235696
     2  H    0.118365
     3  H    0.121814
     4  C    0.017883
     5  C   -0.340845
     6  H    0.118112
     7  H    0.111985
     8  H    0.118156
     9  C   -0.153908
    10  H    0.115552
    11  C   -0.353585
    12  H    0.120163
    13  H    0.115581
    14  H    0.120250
    15  C   -0.342746
    16  H    0.116299
    17  H    0.115688
    18  H    0.119226
    19  C    0.027041
    20  C   -0.348771
    21  H    0.120971
    22  H    0.118676
    23  H    0.119572
    24  C   -0.163245
    25  H    0.116321
    26  C   -0.234395
    27  H    0.123405
    28  H    0.118132
 Sum of Mulliken charges =  -0.00000

 Dipole moment (field-independent basis, Debye):
    X=              0.3626    Y=              0.1699    Z=              0.0498  Tot=              0.4035
 Quadrupole moment (field-independent basis, Debye-Ang):
   XX=            -63.7582   YY=            -63.7112   ZZ=            -67.3994
   XY=              1.0617   XZ=              1.2177   YZ=             -0.3674

 Normal termination of Gaussian 16 at Fri Sep 17 17:50:00 2021.
