 Gaussian 16, Revision A.03,
 Gaussian 16:  EM64L-G16RevA.03 25-Dec-2016

 ---------------------
 #p opt mp2/6-31g(d,p)
 ---------------------

 --------------------------------------------------
 Conformer number 2798. Energy MM = 23.242 kcal/mol
 --------------------------------------------------
 Symbolic Z-matrix:
 Charge =  0 Multiplicity = 1

 SCF Done:  E(RHF) =  -389.155210444     A.U. after   13 cycles
 E2 =    -0.1416941440D+01 EUMP2 =    -0.39057215188371D+03
 SCF Done:  E(RHF) =  -389.157043174     A.U. after   10 cycles
 E2 =    -0.1416584547D+01 EUMP2 =    -0.39057362772133D+03
 SCF Done:  E(RHF) =  -389.157029523     A.U. after   10 cycles
 E2 =    -0.1416744644D+01 EUMP2 =    -0.39057377416672D+03
 SCF Done:  E(RHF) =  -389.156867785     A.U. after   10 cycles
 E2 =    -0.1416945836D+01 EUMP2 =    -0.39057381362089D+03
 SCF Done:  E(RHF) =  -389.156787416     A.U. after    9 cycles
 E2 =    -0.1417044343D+01 EUMP2 =    -0.39057383175910D+03
 SCF Done:  E(RHF) =  -389.156773093     A.U. after    9 cycles
 E2 =    -0.1417073193D+01 EUMP2 =    -0.39057384628609D+03
 SCF Done:  E(RHF) =  -389.156760848     A.U. after    9 cycles
 E2 =    -0.1417091984D+01 EUMP2 =    -0.39057385283208D+03
 SCF Done:  E(RHF) =  -389.156781888     A.U. after    9 cycles
 E2 =    -0.1417078888D+01 EUMP2 =    -0.39057386077617D+03
 SCF Done:  E(RHF) =  -389.156771689     A.U. after    8 cycles
 E2 =    -0.1417092092D+01 EUMP2 =    -0.39057386378035D+03
 SCF Done:  E(RHF) =  -389.156767906     A.U. after    8 cycles
 E2 =    -0.1417096386D+01 EUMP2 =    -0.39057386429229D+03
 SCF Done:  E(RHF) =  -389.156757653     A.U. after    7 cycles
 E2 =    -0.1417106819D+01 EUMP2 =    -0.39057386447168D+03
 SCF Done:  E(RHF) =  -389.156754824     A.U. after    7 cycles
 E2 =    -0.1417109708D+01 EUMP2 =    -0.39057386453224D+03
 SCF Done:  E(RHF) =  -389.156753468     A.U. after    7 cycles
 E2 =    -0.1417111109D+01 EUMP2 =    -0.39057386457648D+03
 Optimization completed.
    -- Stationary point found.

                         Standard orientation:
 ---------------------------------------------------------------------
 Center     Atomic      Atomic             Coordinates (Angstroms)
 Number     Number       Type             X           Y           Z
 ---------------------------------------------------------------------
      1          6           0        0.771611   -0.568571    0.573566
      2          1           0        0.668091   -1.485505    1.160936
      3          1           0        0.434186    0.245279    1.217235
      4          6           0        2.214028   -0.393328    0.170066
      5          6           0        2.980768   -1.666243   -0.064987
      6          1           0        3.055792   -2.249824    0.855138
      7          1           0        3.988690   -1.465697   -0.426088
      8          1           0        2.476558   -2.296856   -0.800634
      9          6           0        2.788610    0.807940   -0.026811
     10          1           0        3.827905    0.823832   -0.343287
     11          6           0        2.147312    2.151891    0.141933
     12          1           0        1.106289    2.078474    0.448309
     13          1           0        2.179292    2.713955   -0.793358
     14          1           0        2.677201    2.747029    0.888116
     15          6           0       -2.413476    1.449342   -0.261196
     16          1           0       -1.404455    1.735289   -0.547298
     17          1           0       -3.100663    1.803956   -1.032689
     18          1           0       -2.667201    1.983663    0.656933
     19          6           0       -2.568198   -0.032333   -0.057323
     20          6           0       -3.939276   -0.466993    0.381612
     21          1           0       -4.213774    0.006272    1.327064
     22          1           0       -3.994267   -1.546768    0.511302
     23          1           0       -4.693643   -0.171282   -0.351041
     24          6           0       -1.584556   -0.932199   -0.245616
     25          1           0       -1.815013   -1.975141   -0.043147
     26          6           0       -0.167066   -0.648290   -0.645619
     27          1           0        0.185347   -1.437831   -1.314703
     28          1           0       -0.088873    0.283853   -1.206537
 ---------------------------------------------------------------------

 The electronic state is 1-A.
 Alpha  occ. eigenvalues --  -11.23020 -11.22460 -11.21868 -11.21730 -11.21712
 Alpha  occ. eigenvalues --  -11.21539 -11.21506 -11.21436 -11.21417 -11.21348
 Alpha  occ. eigenvalues --   -1.10821  -1.08492  -1.01823  -0.98143  -0.93838
 Alpha  occ. eigenvalues --   -0.91939  -0.86963  -0.82855  -0.70494  -0.69519
 Alpha  occ. eigenvalues --   -0.64988  -0.61512  -0.60591  -0.58878  -0.58366
 Alpha  occ. eigenvalues --   -0.56774  -0.55298  -0.54966  -0.53295  -0.52261
 Alpha  occ. eigenvalues --   -0.51859  -0.51173  -0.50832  -0.49581  -0.48519
 Alpha  occ. eigenvalues --   -0.46073  -0.44624  -0.33371  -0.31514
 Alpha virt. eigenvalues --    0.18142   0.19779   0.22152   0.24486   0.25192
 Alpha virt. eigenvalues --    0.27439   0.28535   0.28922   0.30318   0.30811
 Alpha virt. eigenvalues --    0.31477   0.32261   0.33202   0.33794   0.34383

 Mulliken charges:
               1
     1  C   -0.236021
     2  H    0.115272
     3  H    0.125346
     4  C    0.018322
     5  C   -0.341505
     6  H    0.117845
     7  H    0.117792
     8  H    0.114461
     9  C   -0.154256
    10  H    0.115801
    11  C   -0.355567
    12  H    0.116140
    13  H    0.119588
    14  H    0.120829
    15  C   -0.350727
    16  H    0.120474
    17  H    0.121058
    18  H    0.119352
    19  C    0.027221
    20  C   -0.342631
    21  H    0.115672
    22  H    0.119222
    23  H    0.116356
    24  C   -0.163542
    25  H    0.116803
    26  C   -0.235486
    27  H    0.118380
    28  H    0.123802
 Sum of Mulliken charges =  -0.00000

 Dipole moment (field-independent basis, Debye):
    X=             -0.3027    Y=              0.1253    Z=              0.0460  Tot=              0.3308
 Quadrupole moment (field-independent basis, Debye-Ang):
   XX=            -64.3024   YY=            -63.2901   ZZ=            -67.3956
   XY=             -0.7521   XZ=             -1.2367   YZ=             -0.3487

 Normal termination of Gaussian 16 at Fri Sep 17 16:10:58 2021.
