 Gaussian 16, Revision A.03,
 Gaussian 16:  EM64L-G16RevA.03 25-Dec-2016

 ---------------------
 #p opt mp2/6-31g(d,p)
 ---------------------

 --------------------------------------------------
 Conformer number 2030. Energy MM = 23.242 kcal/mol
 --------------------------------------------------
 Symbolic Z-matrix:
 Charge =  0 Multiplicity = 1

 SCF Done:  E(RHF) =  -389.155210573     A.U. after   13 cycles
 E2 =    -0.1416941692D+01 EUMP2 =    -0.39057215226475D+03
 SCF Done:  E(RHF) =  -389.157043278     A.U. after   10 cycles
 E2 =    -0.1416584520D+01 EUMP2 =    -0.39057362779733D+03
 SCF Done:  E(RHF) =  -389.157029313     A.U. after   10 cycles
 E2 =    -0.1416744862D+01 EUMP2 =    -0.39057377417503D+03
 SCF Done:  E(RHF) =  -389.156867739     A.U. after   10 cycles
 E2 =    -0.1416945885D+01 EUMP2 =    -0.39057381362383D+03
 SCF Done:  E(RHF) =  -389.156787631     A.U. after    9 cycles
 E2 =    -0.1417044091D+01 EUMP2 =    -0.39057383172149D+03
 SCF Done:  E(RHF) =  -389.156773160     A.U. after    9 cycles
 E2 =    -0.1417073104D+01 EUMP2 =    -0.39057384626438D+03
 SCF Done:  E(RHF) =  -389.156760857     A.U. after    9 cycles
 E2 =    -0.1417091968D+01 EUMP2 =    -0.39057385282466D+03
 SCF Done:  E(RHF) =  -389.156781737     A.U. after    9 cycles
 E2 =    -0.1417079032D+01 EUMP2 =    -0.39057386076927D+03
 SCF Done:  E(RHF) =  -389.156771432     A.U. after    8 cycles
 E2 =    -0.1417092350D+01 EUMP2 =    -0.39057386378147D+03
 SCF Done:  E(RHF) =  -389.156767768     A.U. after    8 cycles
 E2 =    -0.1417096524D+01 EUMP2 =    -0.39057386429172D+03
 SCF Done:  E(RHF) =  -389.156757602     A.U. after    7 cycles
 E2 =    -0.1417106869D+01 EUMP2 =    -0.39057386447084D+03
 SCF Done:  E(RHF) =  -389.156754771     A.U. after    7 cycles
 E2 =    -0.1417109761D+01 EUMP2 =    -0.39057386453161D+03
 SCF Done:  E(RHF) =  -389.156753420     A.U. after    7 cycles
 E2 =    -0.1417111156D+01 EUMP2 =    -0.39057386457625D+03
 Optimization completed.
    -- Stationary point found.

                         Standard orientation:
 ---------------------------------------------------------------------
 Center     Atomic      Atomic             Coordinates (Angstroms)
 Number     Number       Type             X           Y           Z
 ---------------------------------------------------------------------
      1          6           0        0.771606   -0.568567    0.573565
      2          1           0        0.434179    0.245288    1.217226
      3          1           0        0.668082   -1.485496    1.160941
      4          6           0        2.214024   -0.393329    0.170069
      5          6           0        2.980762   -1.666246   -0.064977
      6          1           0        3.988687   -1.465704   -0.426072
      7          1           0        2.476555   -2.296860   -0.800626
      8          1           0        3.055779   -2.249826    0.855149
      9          6           0        2.788610    0.807937   -0.026813
     10          1           0        3.827906    0.823826   -0.343285
     11          6           0        2.147315    2.151891    0.141925
     12          1           0        2.677198    2.747026    0.888115
     13          1           0        2.179309    2.713955   -0.793365
     14          1           0        1.106288    2.078477    0.448288
     15          6           0       -3.939276   -0.466987    0.381609
     16          1           0       -4.213770    0.006271    1.327066
     17          1           0       -4.693642   -0.171266   -0.351041
     18          1           0       -3.994273   -1.546764    0.511291
     19          6           0       -2.568196   -0.032331   -0.057323
     20          6           0       -2.413465    1.449344   -0.261185
     21          1           0       -1.404443    1.735286   -0.547286
     22          1           0       -2.667185    1.983660    0.656948
     23          1           0       -3.100651    1.803968   -1.032674
     24          6           0       -1.584558   -0.932201   -0.245623
     25          1           0       -1.815021   -1.975144   -0.043162
     26          6           0       -0.167067   -0.648295   -0.645624
     27          1           0        0.185348   -1.437840   -1.314700
     28          1           0       -0.088872    0.283844   -1.206548
 ---------------------------------------------------------------------

 The electronic state is 1-A.
 Alpha  occ. eigenvalues --  -11.23020 -11.22460 -11.21868 -11.21730 -11.21712
 Alpha  occ. eigenvalues --  -11.21539 -11.21506 -11.21436 -11.21417 -11.21348
 Alpha  occ. eigenvalues --   -1.10821  -1.08492  -1.01823  -0.98143  -0.93838
 Alpha  occ. eigenvalues --   -0.91939  -0.86963  -0.82855  -0.70494  -0.69519
 Alpha  occ. eigenvalues --   -0.64988  -0.61512  -0.60591  -0.58878  -0.58366
 Alpha  occ. eigenvalues --   -0.56774  -0.55298  -0.54966  -0.53295  -0.52261
 Alpha  occ. eigenvalues --   -0.51859  -0.51173  -0.50832  -0.49581  -0.48519
 Alpha  occ. eigenvalues --   -0.46073  -0.44624  -0.33371  -0.31514
 Alpha virt. eigenvalues --    0.18142   0.19779   0.22152   0.24486   0.25192
 Alpha virt. eigenvalues --    0.27439   0.28535   0.28922   0.30318   0.30811
 Alpha virt. eigenvalues --    0.31477   0.32261   0.33202   0.33794   0.34383

 Mulliken charges:
               1
     1  C   -0.236021
     2  H    0.125346
     3  H    0.115272
     4  C    0.018322
     5  C   -0.341505
     6  H    0.117792
     7  H    0.114461
     8  H    0.117844
     9  C   -0.154256
    10  H    0.115801
    11  C   -0.355567
    12  H    0.120830
    13  H    0.119588
    14  H    0.116140
    15  C   -0.342631
    16  H    0.115672
    17  H    0.116356
    18  H    0.119222
    19  C    0.027222
    20  C   -0.350727
    21  H    0.120474
    22  H    0.119352
    23  H    0.121058
    24  C   -0.163543
    25  H    0.116803
    26  C   -0.235486
    27  H    0.118380
    28  H    0.123802
 Sum of Mulliken charges =  -0.00000

 Dipole moment (field-independent basis, Debye):
    X=             -0.3027    Y=              0.1253    Z=              0.0460  Tot=              0.3308
 Quadrupole moment (field-independent basis, Debye-Ang):
   XX=            -64.3023   YY=            -63.2901   ZZ=            -67.3956
   XY=             -0.7521   XZ=             -1.2367   YZ=             -0.3487

 Normal termination of Gaussian 16 at Fri Sep 17 14:53:30 2021.
