 Gaussian 16, Revision A.03,
 Gaussian 16:  EM64L-G16RevA.03 25-Dec-2016

 ---------------------
 #p opt mp2/6-31g(d,p)
 ---------------------

 --------------------------------------------------
 Conformer number 2967. Energy MM = 23.287 kcal/mol
 --------------------------------------------------
 Symbolic Z-matrix:
 Charge =  0 Multiplicity = 1

 SCF Done:  E(RHF) =  -389.155294921     A.U. after   12 cycles
 E2 =    -0.1416663261D+01 EUMP2 =    -0.39057195818241D+03
 SCF Done:  E(RHF) =  -389.157062069     A.U. after   10 cycles
 E2 =    -0.1416312000D+01 EUMP2 =    -0.39057337406909D+03
 SCF Done:  E(RHF) =  -389.157054634     A.U. after    9 cycles
 E2 =    -0.1416426622D+01 EUMP2 =    -0.39057348125603D+03
 SCF Done:  E(RHF) =  -389.156932683     A.U. after    9 cycles
 E2 =    -0.1416576493D+01 EUMP2 =    -0.39057350917636D+03
 SCF Done:  E(RHF) =  -389.156869212     A.U. after    9 cycles
 E2 =    -0.1416657085D+01 EUMP2 =    -0.39057352629691D+03
 SCF Done:  E(RHF) =  -389.156836766     A.U. after    9 cycles
 E2 =    -0.1416697976D+01 EUMP2 =    -0.39057353474182D+03
 SCF Done:  E(RHF) =  -389.156861175     A.U. after    8 cycles
 E2 =    -0.1416680475D+01 EUMP2 =    -0.39057354164927D+03
 SCF Done:  E(RHF) =  -389.156909490     A.U. after    8 cycles
 E2 =    -0.1416639288D+01 EUMP2 =    -0.39057354877763D+03
 SCF Done:  E(RHF) =  -389.156923077     A.U. after    8 cycles
 E2 =    -0.1416628185D+01 EUMP2 =    -0.39057355126265D+03
 SCF Done:  E(RHF) =  -389.156921438     A.U. after    8 cycles
 E2 =    -0.1416630661D+01 EUMP2 =    -0.39057355209868D+03
 SCF Done:  E(RHF) =  -389.156909041     A.U. after    8 cycles
 E2 =    -0.1416643503D+01 EUMP2 =    -0.39057355254348D+03
 SCF Done:  E(RHF) =  -389.156899885     A.U. after    7 cycles
 E2 =    -0.1416652796D+01 EUMP2 =    -0.39057355268106D+03
 SCF Done:  E(RHF) =  -389.156891760     A.U. after    7 cycles
 E2 =    -0.1416661049D+01 EUMP2 =    -0.39057355280953D+03
 SCF Done:  E(RHF) =  -389.156885277     A.U. after    8 cycles
 E2 =    -0.1416667610D+01 EUMP2 =    -0.39057355288710D+03
 SCF Done:  E(RHF) =  -389.156884841     A.U. after    7 cycles
 E2 =    -0.1416668068D+01 EUMP2 =    -0.39057355290858D+03
 SCF Done:  E(RHF) =  -389.156884265     A.U. after    7 cycles
 E2 =    -0.1416668657D+01 EUMP2 =    -0.39057355292185D+03
 SCF Done:  E(RHF) =  -389.156883458     A.U. after    7 cycles
 E2 =    -0.1416669475D+01 EUMP2 =    -0.39057355293273D+03
 SCF Done:  E(RHF) =  -389.156881514     A.U. after    7 cycles
 E2 =    -0.1416671431D+01 EUMP2 =    -0.39057355294531D+03
 SCF Done:  E(RHF) =  -389.156879204     A.U. after    7 cycles
 E2 =    -0.1416673750D+01 EUMP2 =    -0.39057355295443D+03
 Optimization completed.
    -- Stationary point found.

                         Standard orientation:
 ---------------------------------------------------------------------
 Center     Atomic      Atomic             Coordinates (Angstroms)
 Number     Number       Type             X           Y           Z
 ---------------------------------------------------------------------
      1          6           0       -0.735171   -0.049077    0.599760
      2          1           0       -0.858056   -0.995634    1.128939
      3          1           0       -0.223415    0.624745    1.292498
      4          6           0       -2.067656    0.543249    0.215792
      5          6           0       -2.104156    2.045368    0.133364
      6          1           0       -1.910794    2.492461    1.110902
      7          1           0       -3.069528    2.403681   -0.221845
      8          1           0       -1.333940    2.419913   -0.544717
      9          6           0       -3.153235   -0.192400   -0.087705
     10          1           0       -4.055793    0.338638   -0.377518
     11          6           0       -3.263930   -1.686752   -0.074229
     12          1           0       -4.039620   -2.014396    0.620459
     13          1           0       -2.331808   -2.169072    0.210543
     14          1           0       -3.542745   -2.060854   -1.061013
     15          6           0        2.813788    1.324570   -0.266418
     16          1           0        3.545442    1.527248   -1.051712
     17          1           0        3.190165    1.794765    0.644557
     18          1           0        1.881716    1.815019   -0.535190
     19          6           0        2.660162   -0.156651   -0.058483
     20          6           0        3.916378   -0.864528    0.368678
     21          1           0        4.708400   -0.730897   -0.371683
     22          1           0        4.291658   -0.457675    1.310390
     23          1           0        3.748900   -1.932405    0.500321
     24          6           0        1.510453   -0.834983   -0.233754
     25          1           0        1.524739   -1.902885   -0.030083
     26          6           0        0.175905   -0.271954   -0.622745
     27          1           0       -0.327652   -0.961525   -1.305223
     28          1           0        0.287105    0.667821   -1.165182
 ---------------------------------------------------------------------

 The electronic state is 1-A.
 Alpha  occ. eigenvalues --  -11.23028 -11.22456 -11.21863 -11.21726 -11.21721
 Alpha  occ. eigenvalues --  -11.21541 -11.21497 -11.21449 -11.21393 -11.21358
 Alpha  occ. eigenvalues --   -1.10803  -1.08495  -1.01828  -0.98138  -0.93839
 Alpha  occ. eigenvalues --   -0.91936  -0.86954  -0.82861  -0.70567  -0.69489
 Alpha  occ. eigenvalues --   -0.64754  -0.61539  -0.60720  -0.58828  -0.58414
 Alpha  occ. eigenvalues --   -0.56814  -0.55405  -0.54979  -0.53298  -0.52217
 Alpha  occ. eigenvalues --   -0.51714  -0.51214  -0.50653  -0.50166  -0.47383
 Alpha  occ. eigenvalues --   -0.46917  -0.44458  -0.33328  -0.31563
 Alpha virt. eigenvalues --    0.18100   0.19932   0.22053   0.24536   0.24955
 Alpha virt. eigenvalues --    0.27424   0.28601   0.28877   0.30353   0.30694
 Alpha virt. eigenvalues --    0.31966   0.32601   0.32969   0.33726   0.34466

 Mulliken charges:
               1
     1  C   -0.235696
     2  H    0.121814
     3  H    0.118365
     4  C    0.017883
     5  C   -0.340845
     6  H    0.118156
     7  H    0.118112
     8  H    0.111985
     9  C   -0.153908
    10  H    0.115552
    11  C   -0.353585
    12  H    0.120250
    13  H    0.115581
    14  H    0.120163
    15  C   -0.348771
    16  H    0.120971
    17  H    0.119572
    18  H    0.118676
    19  C    0.027041
    20  C   -0.342746
    21  H    0.116299
    22  H    0.115688
    23  H    0.119226
    24  C   -0.163245
    25  H    0.116321
    26  C   -0.234395
    27  H    0.123405
    28  H    0.118132
 Sum of Mulliken charges =  -0.00000

 Dipole moment (field-independent basis, Debye):
    X=              0.3626    Y=              0.1699    Z=              0.0498  Tot=              0.4035
 Quadrupole moment (field-independent basis, Debye-Ang):
   XX=            -63.7582   YY=            -63.7112   ZZ=            -67.3994
   XY=              1.0617   XZ=              1.2177   YZ=             -0.3674

 Normal termination of Gaussian 16 at Fri Sep 17 16:43:17 2021.
