 Gaussian 16, Revision A.03,
 Gaussian 16:  EM64L-G16RevA.03 25-Dec-2016

 ---------------------
 #p opt mp2/6-31g(d,p)
 ---------------------

 --------------------------------------------------
 Conformer number 2297. Energy MM = 23.287 kcal/mol
 --------------------------------------------------
 Symbolic Z-matrix:
 Charge =  0 Multiplicity = 1

 SCF Done:  E(RHF) =  -389.155301832     A.U. after   12 cycles
 E2 =    -0.1416656230D+01 EUMP2 =    -0.39057195806191D+03
 SCF Done:  E(RHF) =  -389.157062456     A.U. after   10 cycles
 E2 =    -0.1416311329D+01 EUMP2 =    -0.39057337378444D+03
 SCF Done:  E(RHF) =  -389.157054689     A.U. after    9 cycles
 E2 =    -0.1416426570D+01 EUMP2 =    -0.39057348125917D+03
 SCF Done:  E(RHF) =  -389.156932602     A.U. after    9 cycles
 E2 =    -0.1416576595D+01 EUMP2 =    -0.39057350919707D+03
 SCF Done:  E(RHF) =  -389.156869333     A.U. after    9 cycles
 E2 =    -0.1416656958D+01 EUMP2 =    -0.39057352629143D+03
 SCF Done:  E(RHF) =  -389.156836827     A.U. after    9 cycles
 E2 =    -0.1416697945D+01 EUMP2 =    -0.39057353477159D+03
 SCF Done:  E(RHF) =  -389.156861386     A.U. after    8 cycles
 E2 =    -0.1416680299D+01 EUMP2 =    -0.39057354168458D+03
 SCF Done:  E(RHF) =  -389.156909626     A.U. after    8 cycles
 E2 =    -0.1416639175D+01 EUMP2 =    -0.39057354880144D+03
 SCF Done:  E(RHF) =  -389.156923052     A.U. after    8 cycles
 E2 =    -0.1416628217D+01 EUMP2 =    -0.39057355126984D+03
 SCF Done:  E(RHF) =  -389.156921377     A.U. after    8 cycles
 E2 =    -0.1416630726D+01 EUMP2 =    -0.39057355210266D+03
 SCF Done:  E(RHF) =  -389.156909036     A.U. after    8 cycles
 E2 =    -0.1416643509D+01 EUMP2 =    -0.39057355254424D+03
 SCF Done:  E(RHF) =  -389.156899895     A.U. after    7 cycles
 E2 =    -0.1416652786D+01 EUMP2 =    -0.39057355268130D+03
 SCF Done:  E(RHF) =  -389.156891766     A.U. after    7 cycles
 E2 =    -0.1416661043D+01 EUMP2 =    -0.39057355280944D+03
 SCF Done:  E(RHF) =  -389.156885252     A.U. after    8 cycles
 E2 =    -0.1416667635D+01 EUMP2 =    -0.39057355288723D+03
 SCF Done:  E(RHF) =  -389.156884795     A.U. after    7 cycles
 E2 =    -0.1416668114D+01 EUMP2 =    -0.39057355290876D+03
 SCF Done:  E(RHF) =  -389.156884220     A.U. after    7 cycles
 E2 =    -0.1416668702D+01 EUMP2 =    -0.39057355292204D+03
 SCF Done:  E(RHF) =  -389.156883419     A.U. after    7 cycles
 E2 =    -0.1416669514D+01 EUMP2 =    -0.39057355293286D+03
 SCF Done:  E(RHF) =  -389.156881488     A.U. after    7 cycles
 E2 =    -0.1416671458D+01 EUMP2 =    -0.39057355294540D+03
 SCF Done:  E(RHF) =  -389.156879193     A.U. after    7 cycles
 E2 =    -0.1416673761D+01 EUMP2 =    -0.39057355295448D+03
 Optimization completed.
    -- Stationary point found.

                         Standard orientation:
 ---------------------------------------------------------------------
 Center     Atomic      Atomic             Coordinates (Angstroms)
 Number     Number       Type             X           Y           Z
 ---------------------------------------------------------------------
      1          6           0       -0.735171   -0.049077    0.599760
      2          1           0       -0.223414    0.624745    1.292497
      3          1           0       -0.858055   -0.995633    1.128938
      4          6           0       -2.067656    0.543249    0.215792
      5          6           0       -2.104157    2.045368    0.133364
      6          1           0       -3.069529    2.403681   -0.221845
      7          1           0       -1.910795    2.492461    1.110902
      8          1           0       -1.333941    2.419913   -0.544717
      9          6           0       -3.153235   -0.192401   -0.087705
     10          1           0       -4.055792    0.338638   -0.377518
     11          6           0       -3.263929   -1.686753   -0.074229
     12          1           0       -2.331807   -2.169073    0.210543
     13          1           0       -3.542744   -2.060854   -1.061013
     14          1           0       -4.039619   -2.014397    0.620459
     15          6           0        3.916378   -0.864528    0.368678
     16          1           0        4.291656   -0.457676    1.310391
     17          1           0        4.708400   -0.730896   -0.371682
     18          1           0        3.748900   -1.932405    0.500321
     19          6           0        2.660162   -0.156651   -0.058484
     20          6           0        2.813788    1.324570   -0.266418
     21          1           0        3.190163    1.794766    0.644557
     22          1           0        1.881716    1.815018   -0.535192
     23          1           0        3.545442    1.527248   -1.051711
     24          6           0        1.510452   -0.834982   -0.233755
     25          1           0        1.524739   -1.902885   -0.030083
     26          6           0        0.175905   -0.271954   -0.622745
     27          1           0        0.287105    0.667822   -1.165182
     28          1           0       -0.327652   -0.961525   -1.305224
 ---------------------------------------------------------------------

 The electronic state is 1-A.
 Alpha  occ. eigenvalues --  -11.23028 -11.22456 -11.21863 -11.21726 -11.21721
 Alpha  occ. eigenvalues --  -11.21541 -11.21497 -11.21449 -11.21393 -11.21358
 Alpha  occ. eigenvalues --   -1.10803  -1.08495  -1.01828  -0.98138  -0.93839
 Alpha  occ. eigenvalues --   -0.91936  -0.86954  -0.82861  -0.70567  -0.69489
 Alpha  occ. eigenvalues --   -0.64754  -0.61539  -0.60720  -0.58828  -0.58414
 Alpha  occ. eigenvalues --   -0.56814  -0.55405  -0.54979  -0.53298  -0.52217
 Alpha  occ. eigenvalues --   -0.51714  -0.51214  -0.50653  -0.50166  -0.47383
 Alpha  occ. eigenvalues --   -0.46917  -0.44458  -0.33328  -0.31563
 Alpha virt. eigenvalues --    0.18100   0.19932   0.22053   0.24536   0.24955
 Alpha virt. eigenvalues --    0.27424   0.28601   0.28877   0.30353   0.30694
 Alpha virt. eigenvalues --    0.31966   0.32601   0.32969   0.33726   0.34466

 Mulliken charges:
               1
     1  C   -0.235696
     2  H    0.118365
     3  H    0.121814
     4  C    0.017883
     5  C   -0.340845
     6  H    0.118112
     7  H    0.118156
     8  H    0.111985
     9  C   -0.153908
    10  H    0.115552
    11  C   -0.353585
    12  H    0.115581
    13  H    0.120163
    14  H    0.120250
    15  C   -0.342746
    16  H    0.115688
    17  H    0.116299
    18  H    0.119226
    19  C    0.027041
    20  C   -0.348771
    21  H    0.119572
    22  H    0.118676
    23  H    0.120971
    24  C   -0.163245
    25  H    0.116321
    26  C   -0.234395
    27  H    0.118132
    28  H    0.123405
 Sum of Mulliken charges =  -0.00000

 Dipole moment (field-independent basis, Debye):
    X=              0.3626    Y=              0.1699    Z=              0.0498  Tot=              0.4035
 Quadrupole moment (field-independent basis, Debye-Ang):
   XX=            -63.7582   YY=            -63.7112   ZZ=            -67.3994
   XY=              1.0617   XZ=              1.2177   YZ=             -0.3674

 Normal termination of Gaussian 16 at Fri Sep 17 15:23:39 2021.
