 Gaussian 16, Revision A.03,
 Gaussian 16:  EM64L-G16RevA.03 25-Dec-2016

 ---------------------
 #p opt mp2/6-31g(d,p)
 ---------------------

 -------------------------------------------------
 Conformer number 334. Energy MM = 23.242 kcal/mol
 -------------------------------------------------
 Symbolic Z-matrix:
 Charge =  0 Multiplicity = 1

 SCF Done:  E(RHF) =  -389.155208869     A.U. after   13 cycles
 E2 =    -0.1416941662D+01 EUMP2 =    -0.39057215053128D+03
 SCF Done:  E(RHF) =  -389.157043264     A.U. after   10 cycles
 E2 =    -0.1416584439D+01 EUMP2 =    -0.39057362770393D+03
 SCF Done:  E(RHF) =  -389.157029493     A.U. after   10 cycles
 E2 =    -0.1416744711D+01 EUMP2 =    -0.39057377420336D+03
 SCF Done:  E(RHF) =  -389.156867706     A.U. after   10 cycles
 E2 =    -0.1416945979D+01 EUMP2 =    -0.39057381368507D+03
 SCF Done:  E(RHF) =  -389.156787695     A.U. after    9 cycles
 E2 =    -0.1417044058D+01 EUMP2 =    -0.39057383175351D+03
 SCF Done:  E(RHF) =  -389.156773278     A.U. after    9 cycles
 E2 =    -0.1417073000D+01 EUMP2 =    -0.39057384627875D+03
 SCF Done:  E(RHF) =  -389.156761044     A.U. after    9 cycles
 E2 =    -0.1417091803D+01 EUMP2 =    -0.39057385284677D+03
 SCF Done:  E(RHF) =  -389.156781898     A.U. after    9 cycles
 E2 =    -0.1417078882D+01 EUMP2 =    -0.39057386077973D+03
 SCF Done:  E(RHF) =  -389.156771625     A.U. after    8 cycles
 E2 =    -0.1417092160D+01 EUMP2 =    -0.39057386378435D+03
 SCF Done:  E(RHF) =  -389.156767912     A.U. after    8 cycles
 E2 =    -0.1417096382D+01 EUMP2 =    -0.39057386429366D+03
 SCF Done:  E(RHF) =  -389.156757710     A.U. after    7 cycles
 E2 =    -0.1417106762D+01 EUMP2 =    -0.39057386447202D+03
 SCF Done:  E(RHF) =  -389.156754857     A.U. after    7 cycles
 E2 =    -0.1417109676D+01 EUMP2 =    -0.39057386453235D+03
 SCF Done:  E(RHF) =  -389.156753482     A.U. after    7 cycles
 E2 =    -0.1417111094D+01 EUMP2 =    -0.39057386457651D+03
 Optimization completed.
    -- Stationary point found.

                         Standard orientation:
 ---------------------------------------------------------------------
 Center     Atomic      Atomic             Coordinates (Angstroms)
 Number     Number       Type             X           Y           Z
 ---------------------------------------------------------------------
      1          6           0       -0.771613   -0.568572    0.573567
      2          1           0       -0.434190    0.245275    1.217240
      3          1           0       -0.668094   -1.485508    1.160933
      4          6           0       -2.214030   -0.393328    0.170066
      5          6           0       -2.980770   -1.666242   -0.064990
      6          1           0       -3.988692   -1.465695   -0.426090
      7          1           0       -3.055795   -2.249825    0.855134
      8          1           0       -2.476561   -2.296854   -0.800638
      9          6           0       -2.788610    0.807941   -0.026812
     10          1           0       -3.827904    0.823835   -0.343289
     11          6           0       -2.147310    2.151891    0.141935
     12          1           0       -2.179291    2.713957   -0.793354
     13          1           0       -2.677198    2.747028    0.888120
     14          1           0       -1.106287    2.078471    0.448310
     15          6           0        3.939277   -0.466997    0.381611
     16          1           0        3.994264   -1.546772    0.511303
     17          1           0        4.693643   -0.171289   -0.351043
     18          1           0        4.213776    0.006268    1.327063
     19          6           0        2.568199   -0.032333   -0.057323
     20          6           0        2.413482    1.449342   -0.261197
     21          1           0        3.100671    1.803954   -1.032688
     22          1           0        1.404462    1.735291   -0.547302
     23          1           0        2.667205    1.983662    0.656932
     24          6           0        1.584554   -0.932197   -0.245614
     25          1           0        1.815009   -1.975140   -0.043144
     26          6           0        0.167065   -0.648287   -0.645618
     27          1           0        0.088873    0.283859   -1.206532
     28          1           0       -0.185347   -1.437825   -1.314705
 ---------------------------------------------------------------------

 The electronic state is 1-A.
 Alpha  occ. eigenvalues --  -11.23020 -11.22460 -11.21868 -11.21730 -11.21712
 Alpha  occ. eigenvalues --  -11.21539 -11.21506 -11.21436 -11.21417 -11.21348
 Alpha  occ. eigenvalues --   -1.10821  -1.08492  -1.01823  -0.98143  -0.93838
 Alpha  occ. eigenvalues --   -0.91939  -0.86963  -0.82855  -0.70494  -0.69519
 Alpha  occ. eigenvalues --   -0.64988  -0.61512  -0.60591  -0.58878  -0.58366
 Alpha  occ. eigenvalues --   -0.56774  -0.55298  -0.54966  -0.53295  -0.52261
 Alpha  occ. eigenvalues --   -0.51859  -0.51173  -0.50832  -0.49581  -0.48519
 Alpha  occ. eigenvalues --   -0.46073  -0.44624  -0.33371  -0.31514
 Alpha virt. eigenvalues --    0.18142   0.19779   0.22152   0.24486   0.25192
 Alpha virt. eigenvalues --    0.27439   0.28535   0.28922   0.30318   0.30811
 Alpha virt. eigenvalues --    0.31477   0.32261   0.33202   0.33794   0.34383

 Mulliken charges:
               1
     1  C   -0.236021
     2  H    0.125346
     3  H    0.115272
     4  C    0.018322
     5  C   -0.341505
     6  H    0.117792
     7  H    0.117845
     8  H    0.114461
     9  C   -0.154256
    10  H    0.115801
    11  C   -0.355567
    12  H    0.119588
    13  H    0.120829
    14  H    0.116140
    15  C   -0.342631
    16  H    0.119222
    17  H    0.116356
    18  H    0.115672
    19  C    0.027221
    20  C   -0.350727
    21  H    0.121058
    22  H    0.120474
    23  H    0.119352
    24  C   -0.163542
    25  H    0.116803
    26  C   -0.235486
    27  H    0.123802
    28  H    0.118380
 Sum of Mulliken charges =  -0.00000

 Dipole moment (field-independent basis, Debye):
    X=              0.3027    Y=              0.1253    Z=              0.0460  Tot=              0.3308
 Quadrupole moment (field-independent basis, Debye-Ang):
   XX=            -64.3024   YY=            -63.2901   ZZ=            -67.3956
   XY=              0.7521   XZ=              1.2367   YZ=             -0.3487

 Normal termination of Gaussian 16 at Fri Sep 17 15:57:56 2021.
