 Gaussian 16, Revision A.03,
 Gaussian 16:  EM64L-G16RevA.03 25-Dec-2016

 ---------------------
 #p opt mp2/6-31g(d,p)
 ---------------------

 --------------------------------------------------
 Conformer number 2579. Energy MM = 23.242 kcal/mol
 --------------------------------------------------
 Symbolic Z-matrix:
 Charge =  0 Multiplicity = 1

 SCF Done:  E(RHF) =  -389.155203680     A.U. after   13 cycles
 E2 =    -0.1416948245D+01 EUMP2 =    -0.39057215192557D+03
 SCF Done:  E(RHF) =  -389.157043043     A.U. after   10 cycles
 E2 =    -0.1416585100D+01 EUMP2 =    -0.39057362814297D+03
 SCF Done:  E(RHF) =  -389.157029711     A.U. after   10 cycles
 E2 =    -0.1416744521D+01 EUMP2 =    -0.39057377423173D+03
 SCF Done:  E(RHF) =  -389.156868145     A.U. after   10 cycles
 E2 =    -0.1416945490D+01 EUMP2 =    -0.39057381363447D+03
 SCF Done:  E(RHF) =  -389.156787525     A.U. after    9 cycles
 E2 =    -0.1417044252D+01 EUMP2 =    -0.39057383177786D+03
 SCF Done:  E(RHF) =  -389.156772962     A.U. after    9 cycles
 E2 =    -0.1417073312D+01 EUMP2 =    -0.39057384627433D+03
 SCF Done:  E(RHF) =  -389.156760525     A.U. after    9 cycles
 E2 =    -0.1417092287D+01 EUMP2 =    -0.39057385281130D+03
 SCF Done:  E(RHF) =  -389.156781819     A.U. after    9 cycles
 E2 =    -0.1417078960D+01 EUMP2 =    -0.39057386077857D+03
 SCF Done:  E(RHF) =  -389.156771705     A.U. after    8 cycles
 E2 =    -0.1417092072D+01 EUMP2 =    -0.39057386377727D+03
 SCF Done:  E(RHF) =  -389.156767887     A.U. after    8 cycles
 E2 =    -0.1417096404D+01 EUMP2 =    -0.39057386429070D+03
 SCF Done:  E(RHF) =  -389.156757633     A.U. after    7 cycles
 E2 =    -0.1417106838D+01 EUMP2 =    -0.39057386447081D+03
 SCF Done:  E(RHF) =  -389.156754815     A.U. after    7 cycles
 E2 =    -0.1417109717D+01 EUMP2 =    -0.39057386453163D+03
 SCF Done:  E(RHF) =  -389.156753448     A.U. after    7 cycles
 E2 =    -0.1417111129D+01 EUMP2 =    -0.39057386457628D+03
 Optimization completed.
    -- Stationary point found.

                         Standard orientation:
 ---------------------------------------------------------------------
 Center     Atomic      Atomic             Coordinates (Angstroms)
 Number     Number       Type             X           Y           Z
 ---------------------------------------------------------------------
      1          6           0        0.771608   -0.568569    0.573566
      2          1           0        0.434182    0.245284    1.217229
      3          1           0        0.668087   -1.485499    1.160940
      4          6           0        2.214026   -0.393329    0.170067
      5          6           0        2.980764   -1.666244   -0.064985
      6          1           0        2.476558   -2.296855   -0.800637
      7          1           0        3.988689   -1.465700   -0.426078
      8          1           0        3.055781   -2.249828    0.855139
      9          6           0        2.788610    0.807939   -0.026811
     10          1           0        3.827905    0.823829   -0.343285
     11          6           0        2.147315    2.151891    0.141931
     12          1           0        2.677201    2.747028    0.888118
     13          1           0        1.106290    2.078476    0.448302
     14          1           0        2.179301    2.713955   -0.793359
     15          6           0       -3.939276   -0.466989    0.381613
     16          1           0       -4.693642   -0.171277   -0.351039
     17          1           0       -3.994268   -1.546764    0.511305
     18          1           0       -4.213771    0.006277    1.327065
     19          6           0       -2.568197   -0.032332   -0.057324
     20          6           0       -2.413472    1.449343   -0.261196
     21          1           0       -1.404451    1.735286   -0.547304
     22          1           0       -2.667188    1.983663    0.656935
     23          1           0       -3.100662    1.803959   -1.032683
     24          6           0       -1.584557   -0.932200   -0.245617
     25          1           0       -1.815017   -1.975142   -0.043148
     26          6           0       -0.167067   -0.648294   -0.645621
     27          1           0       -0.088873    0.283846   -1.206543
     28          1           0        0.185347   -1.437838   -1.314700
 ---------------------------------------------------------------------

 The electronic state is 1-A.
 Alpha  occ. eigenvalues --  -11.23020 -11.22460 -11.21868 -11.21730 -11.21712
 Alpha  occ. eigenvalues --  -11.21539 -11.21506 -11.21436 -11.21417 -11.21348
 Alpha  occ. eigenvalues --   -1.10821  -1.08492  -1.01823  -0.98143  -0.93838
 Alpha  occ. eigenvalues --   -0.91939  -0.86963  -0.82855  -0.70494  -0.69519
 Alpha  occ. eigenvalues --   -0.64988  -0.61512  -0.60591  -0.58878  -0.58366
 Alpha  occ. eigenvalues --   -0.56774  -0.55298  -0.54966  -0.53295  -0.52261
 Alpha  occ. eigenvalues --   -0.51859  -0.51173  -0.50832  -0.49581  -0.48519
 Alpha  occ. eigenvalues --   -0.46073  -0.44624  -0.33371  -0.31514
 Alpha virt. eigenvalues --    0.18142   0.19779   0.22152   0.24486   0.25192
 Alpha virt. eigenvalues --    0.27439   0.28535   0.28922   0.30318   0.30811
 Alpha virt. eigenvalues --    0.31477   0.32261   0.33202   0.33794   0.34383

 Mulliken charges:
               1
     1  C   -0.236021
     2  H    0.125346
     3  H    0.115272
     4  C    0.018322
     5  C   -0.341505
     6  H    0.114461
     7  H    0.117792
     8  H    0.117844
     9  C   -0.154256
    10  H    0.115801
    11  C   -0.355567
    12  H    0.120829
    13  H    0.116140
    14  H    0.119588
    15  C   -0.342631
    16  H    0.116356
    17  H    0.119222
    18  H    0.115672
    19  C    0.027222
    20  C   -0.350727
    21  H    0.120474
    22  H    0.119352
    23  H    0.121058
    24  C   -0.163542
    25  H    0.116803
    26  C   -0.235486
    27  H    0.123802
    28  H    0.118380
 Sum of Mulliken charges =  -0.00000

 Dipole moment (field-independent basis, Debye):
    X=             -0.3027    Y=              0.1253    Z=              0.0460  Tot=              0.3308
 Quadrupole moment (field-independent basis, Debye-Ang):
   XX=            -64.3024   YY=            -63.2901   ZZ=            -67.3956
   XY=             -0.7521   XZ=             -1.2367   YZ=             -0.3487

 Normal termination of Gaussian 16 at Fri Sep 17 15:10:47 2021.
