 Gaussian 16, Revision A.03,
 Gaussian 16:  EM64L-G16RevA.03 25-Dec-2016

 ---------------------
 #p opt mp2/6-31g(d,p)
 ---------------------

 --------------------------------------------------
 Conformer number 2787. Energy MM = 23.242 kcal/mol
 --------------------------------------------------
 Symbolic Z-matrix:
 Charge =  0 Multiplicity = 1

 SCF Done:  E(RHF) =  -389.155203069     A.U. after   13 cycles
 E2 =    -0.1416946234D+01 EUMP2 =    -0.39057214930345D+03
 SCF Done:  E(RHF) =  -389.157043168     A.U. after   10 cycles
 E2 =    -0.1416584655D+01 EUMP2 =    -0.39057362782351D+03
 SCF Done:  E(RHF) =  -389.157029442     A.U. after   10 cycles
 E2 =    -0.1416744704D+01 EUMP2 =    -0.39057377414578D+03
 SCF Done:  E(RHF) =  -389.156867719     A.U. after   10 cycles
 E2 =    -0.1416945895D+01 EUMP2 =    -0.39057381361402D+03
 SCF Done:  E(RHF) =  -389.156787419     A.U. after    9 cycles
 E2 =    -0.1417044301D+01 EUMP2 =    -0.39057383172036D+03
 SCF Done:  E(RHF) =  -389.156772912     A.U. after    9 cycles
 E2 =    -0.1417073362D+01 EUMP2 =    -0.39057384627341D+03
 SCF Done:  E(RHF) =  -389.156760573     A.U. after    9 cycles
 E2 =    -0.1417092255D+01 EUMP2 =    -0.39057385282831D+03
 SCF Done:  E(RHF) =  -389.156781628     A.U. after    9 cycles
 E2 =    -0.1417079148D+01 EUMP2 =    -0.39057386077683D+03
 SCF Done:  E(RHF) =  -389.156771451     A.U. after    8 cycles
 E2 =    -0.1417092330D+01 EUMP2 =    -0.39057386378115D+03
 SCF Done:  E(RHF) =  -389.156767741     A.U. after    8 cycles
 E2 =    -0.1417096551D+01 EUMP2 =    -0.39057386429178D+03
 SCF Done:  E(RHF) =  -389.156757591     A.U. after    7 cycles
 E2 =    -0.1417106879D+01 EUMP2 =    -0.39057386447059D+03
 SCF Done:  E(RHF) =  -389.156754761     A.U. after    7 cycles
 E2 =    -0.1417109770D+01 EUMP2 =    -0.39057386453142D+03
 SCF Done:  E(RHF) =  -389.156753412     A.U. after    7 cycles
 E2 =    -0.1417111164D+01 EUMP2 =    -0.39057386457620D+03
 Optimization completed.
    -- Stationary point found.

                         Standard orientation:
 ---------------------------------------------------------------------
 Center     Atomic      Atomic             Coordinates (Angstroms)
 Number     Number       Type             X           Y           Z
 ---------------------------------------------------------------------
      1          6           0        0.771605   -0.568566    0.573565
      2          1           0        0.434178    0.245289    1.217224
      3          1           0        0.668081   -1.485495    1.160943
      4          6           0        2.214024   -0.393329    0.170069
      5          6           0        2.980761   -1.666246   -0.064976
      6          1           0        3.988687   -1.465704   -0.426069
      7          1           0        3.055776   -2.249826    0.855150
      8          1           0        2.476556   -2.296859   -0.800626
      9          6           0        2.788609    0.807937   -0.026813
     10          1           0        3.827905    0.823825   -0.343284
     11          6           0        2.147315    2.151891    0.141924
     12          1           0        2.677197    2.747027    0.888114
     13          1           0        1.106288    2.078478    0.448286
     14          1           0        2.179310    2.713955   -0.793366
     15          6           0       -3.939276   -0.466986    0.381610
     16          1           0       -3.994273   -1.546762    0.511292
     17          1           0       -4.693641   -0.171264   -0.351041
     18          1           0       -4.213770    0.006274    1.327066
     19          6           0       -2.568195   -0.032331   -0.057323
     20          6           0       -2.413463    1.449344   -0.261185
     21          1           0       -1.404441    1.735285   -0.547289
     22          1           0       -2.667179    1.983660    0.656950
     23          1           0       -3.100650    1.803969   -1.032671
     24          6           0       -1.584559   -0.932202   -0.245624
     25          1           0       -1.815022   -1.975144   -0.043163
     26          6           0       -0.167067   -0.648297   -0.645624
     27          1           0       -0.088872    0.283842   -1.206550
     28          1           0        0.185348   -1.437843   -1.314699
 ---------------------------------------------------------------------

 The electronic state is 1-A.
 Alpha  occ. eigenvalues --  -11.23020 -11.22460 -11.21868 -11.21730 -11.21712
 Alpha  occ. eigenvalues --  -11.21539 -11.21506 -11.21436 -11.21417 -11.21348
 Alpha  occ. eigenvalues --   -1.10821  -1.08492  -1.01823  -0.98143  -0.93838
 Alpha  occ. eigenvalues --   -0.91939  -0.86963  -0.82855  -0.70494  -0.69519
 Alpha  occ. eigenvalues --   -0.64988  -0.61512  -0.60591  -0.58878  -0.58366
 Alpha  occ. eigenvalues --   -0.56774  -0.55298  -0.54966  -0.53295  -0.52261
 Alpha  occ. eigenvalues --   -0.51859  -0.51173  -0.50832  -0.49581  -0.48519
 Alpha  occ. eigenvalues --   -0.46073  -0.44624  -0.33371  -0.31514
 Alpha virt. eigenvalues --    0.18142   0.19779   0.22152   0.24486   0.25192
 Alpha virt. eigenvalues --    0.27439   0.28535   0.28922   0.30318   0.30811
 Alpha virt. eigenvalues --    0.31477   0.32261   0.33202   0.33794   0.34383

 Mulliken charges:
               1
     1  C   -0.236021
     2  H    0.125346
     3  H    0.115272
     4  C    0.018322
     5  C   -0.341505
     6  H    0.117792
     7  H    0.117844
     8  H    0.114461
     9  C   -0.154256
    10  H    0.115801
    11  C   -0.355567
    12  H    0.120830
    13  H    0.116140
    14  H    0.119588
    15  C   -0.342631
    16  H    0.119222
    17  H    0.116356
    18  H    0.115672
    19  C    0.027222
    20  C   -0.350727
    21  H    0.120474
    22  H    0.119352
    23  H    0.121058
    24  C   -0.163543
    25  H    0.116803
    26  C   -0.235486
    27  H    0.123802
    28  H    0.118380
 Sum of Mulliken charges =  -0.00000

 Dipole moment (field-independent basis, Debye):
    X=             -0.3027    Y=              0.1253    Z=              0.0460  Tot=              0.3308
 Quadrupole moment (field-independent basis, Debye-Ang):
   XX=            -64.3024   YY=            -63.2901   ZZ=            -67.3956
   XY=             -0.7521   XZ=             -1.2367   YZ=             -0.3487

 Normal termination of Gaussian 16 at Fri Sep 17 16:07:39 2021.
