 Gaussian 16, Revision A.03,
 Gaussian 16:  EM64L-G16RevA.03 25-Dec-2016

 -------------------------------------------------------
 #p BLYP/6-31G* EmpiricalDispersion=GD3 freq scale=0.992
 -------------------------------------------------------

 --------------------------------------------
 Conformer name C12H26O3_pair_004_088_allign.
 --------------------------------------------
 Symbolic Z-matrix:
 Charge =  0 Multiplicity = 1

                         Standard orientation:
 ---------------------------------------------------------------------
 Center     Atomic      Atomic             Coordinates (Angstroms)
 Number     Number       Type             X           Y           Z
 ---------------------------------------------------------------------
      1          1           0       -3.454382   -2.177468    0.790906
      2          6           0       -3.523985   -1.332243    1.491123
      3          6           0       -3.654427   -0.005928    0.716285
      4          1           0       -4.389342   -1.499992    2.152293
      5          1           0       -2.615753   -1.337350    2.118610
      6          1           0       -3.771260    0.836911    1.420733
      7          1           0       -4.563944   -0.026408    0.089641
      8          6           0       -2.448684    0.285710   -0.197820
      9          6           0       -2.562796    1.661785   -0.897278
     10          1           0       -1.530522    0.292568    0.429513
     11          1           0       -2.634915    2.443193   -0.118027
     12          1           0       -3.511924    1.684467   -1.462217
     13          8           0       -2.370869   -0.792983   -1.158233
     14          1           0       -1.457091   -0.780293   -1.520949
     15          6           0       -1.387167    1.976001   -1.845051
     16          1           0       -1.339259    1.244741   -2.666091
     17          1           0       -0.421434    1.931237   -1.316198
     18          1           0       -1.490651    2.978650   -2.289605
     19          1           0        3.534076   -1.753231   -1.015884
     20          6           0        3.990015   -0.776686   -1.240631
     21          6           0        3.857993    0.178795   -0.036739
     22          1           0        5.047632   -0.948793   -1.493862
     23          1           0        3.482290   -0.370099   -2.129245
     24          1           0        4.383556    1.127389   -0.246714
     25          1           0        4.340785   -0.260113    0.854169
     26          6           0        2.400897    0.528804    0.309856
     27          6           0        2.245990    1.461179    1.522611
     28          1           0        1.895262    0.954089   -0.571313
     29          1           0        2.822072    2.379341    1.311092
     30          1           0        2.719831    0.985120    2.399041
     31          8           0        1.699164   -0.733759    0.657876
     32          6           0        0.765223   -1.211902   -0.208793
     33          8           0        0.490731   -0.688516   -1.292395
     34          6           0        0.102627   -2.472708    0.314820
     35          1           0        0.300087   -2.627229    1.382775
     36          1           0       -0.975819   -2.394533    0.117583
     37          1           0        0.487914   -3.334916   -0.253102
     38          6           0        0.778567    1.816916    1.838476
     39          1           0        0.712082    2.495675    2.702754
     40          1           0        0.200378    0.910349    2.073715
     41          1           0        0.292608    2.310417    0.981237
 ---------------------------------------------------------------------

 SCF Done:  E(RB-LYP) =  -698.334098458     A.U. after   16 cycles

 The electronic state is 1-A.
 Alpha  occ. eigenvalues --  -18.84221 -18.79216 -18.76619 -10.05505  -9.98343
 Alpha  occ. eigenvalues --   -9.95361  -9.93276  -9.93222  -9.93201  -9.91992
 Alpha  occ. eigenvalues --   -9.91854  -9.90744  -9.90629  -9.90199  -9.90142
 Alpha  occ. eigenvalues --   -0.99173  -0.91462  -0.88669  -0.72864  -0.68816
 Alpha  occ. eigenvalues --   -0.67730  -0.66674  -0.65545  -0.61041  -0.58427
 Alpha  occ. eigenvalues --   -0.54172  -0.54056  -0.51850  -0.49414  -0.48753
 Alpha  occ. eigenvalues --   -0.44316  -0.43249  -0.42108  -0.40491  -0.38810
 Alpha  occ. eigenvalues --   -0.38682  -0.38362  -0.38183  -0.36471  -0.36169
 Alpha  occ. eigenvalues --   -0.35493  -0.34819  -0.34530  -0.34297  -0.33102
 Alpha  occ. eigenvalues --   -0.32780  -0.31668  -0.31377  -0.30065  -0.29770
 Alpha  occ. eigenvalues --   -0.29726  -0.29417  -0.28642  -0.28280  -0.27902
 Alpha  occ. eigenvalues --   -0.27625  -0.27242  -0.25044  -0.24569  -0.22358
 Alpha  occ. eigenvalues --   -0.18944
 Alpha virt. eigenvalues --   -0.02900   0.04405   0.06731   0.06931   0.08005
 Alpha virt. eigenvalues --    0.08745   0.09269   0.10214   0.10635   0.11534
 Alpha virt. eigenvalues --    0.11785   0.12445   0.12953   0.13285   0.13835

 Mulliken charges:
               1
     1  H    0.152217
     2  C   -0.410970
     3  C   -0.214731
     4  H    0.120931
     5  H    0.115558
     6  H    0.107388
     7  H    0.121940
     8  C    0.137204
     9  C   -0.214035
    10  H    0.085559
    11  H    0.102137
    12  H    0.118010
    13  O   -0.625513
    14  H    0.403394
    15  C   -0.430245
    16  H    0.139458
    17  H    0.139872
    18  H    0.120610
    19  H    0.137469
    20  C   -0.414027
    21  C   -0.226151
    22  H    0.131363
    23  H    0.146059
    24  H    0.124282
    25  H    0.126194
    26  C    0.110067
    27  C   -0.227840
    28  H    0.153186
    29  H    0.124631
    30  H    0.127708
    31  O   -0.422591
    32  C    0.596172
    33  O   -0.467606
    34  C   -0.516108
    35  H    0.158041
    36  H    0.200875
    37  H    0.170234
    38  C   -0.429346
    39  H    0.132541
    40  H    0.149058
    41  H    0.147004
 Sum of Mulliken charges =  -0.00000

 Dipole moment (field-independent basis, Debye):
    X=              2.7415    Y=              0.6254    Z=              1.7705  Tot=              3.3229
 Quadrupole moment (field-independent basis, Debye-Ang):
   XX=            -95.8425   YY=            -92.5380   ZZ=            -99.1973
   XY=             -1.0279   XZ=             -2.3967   YZ=             -0.3264

  Exact polarizability: 160.665   4.350 141.026  -0.386  -0.723 133.055
 Approx polarizability: 228.766   7.734 222.714  15.279  -2.082 232.671

 ******    1 imaginary frequencies (negative Signs) ******

                      1                      2                      3
                      A                      A                      A
 Frequencies --    -22.1202                14.2420                17.2868
 Red. masses --      2.2027                 3.5488                 3.1540
 Frc consts  --      0.0006                 0.0004                 0.0006
 IR Inten    --      0.2280                 0.1611                 0.2021

                      4                      5                      6
                      A                      A                      A
 Frequencies --     43.9476                57.5785                70.2754
 Red. masses --      2.5141                 2.1496                 2.0709
 Frc consts  --      0.0029                 0.0042                 0.0060
 IR Inten    --      0.0485                 0.6142                 0.1839

                      7                      8                      9
                      A                      A                      A
 Frequencies --     83.9498                94.1633                97.5116
 Red. masses --      2.1165                 2.0635                 2.0780
 Frc consts  --      0.0088                 0.0108                 0.0116
 IR Inten    --      0.2986                 0.1119                 0.6783

                     10                     11                     12
                      A                      A                      A
 Frequencies --    102.2872               123.9327               128.0919
 Red. masses --      1.6528                 2.2503                 4.2112
 Frc consts  --      0.0102                 0.0204                 0.0407
 IR Inten    --      0.6328                 0.2686                13.0015

                     13                     14                     15
                      A                      A                      A
 Frequencies --    153.8004               180.0621               197.0004
 Red. masses --      3.9120                 2.6254                 1.5776
 Frc consts  --      0.0545                 0.0502                 0.0361
 IR Inten    --      1.5811                 4.2881                 1.9141

                     16                     17                     18
                      A                      A                      A
 Frequencies --    206.3765               220.2474               240.9555
 Red. masses --      2.2654                 1.3167                 1.5544
 Frc consts  --      0.0568                 0.0376                 0.0532
 IR Inten    --      0.1083                 0.7266                 3.9945

                     19                     20                     21
                      A                      A                      A
 Frequencies --    245.2975               250.5864               312.3825
 Red. masses --      1.2614                 1.4742                 3.6674
 Frc consts  --      0.0447                 0.0545                 0.2109
 IR Inten    --      2.1860                 3.9636                 7.2644

                     22                     23                     24
                      A                      A                      A
 Frequencies --    314.2179               354.5865               390.9860
 Red. masses --      3.5697                 3.1078                 3.2079
 Frc consts  --      0.2077                 0.2302                 0.2889
 IR Inten    --      8.4558                 1.5844                 0.8926

                     25                     26                     27
                      A                      A                      A
 Frequencies --    425.8286               459.0729               472.1683
 Red. masses --      3.5817                 2.4355                 2.2892
 Frc consts  --      0.3827                 0.3024                 0.3007
 IR Inten    --      5.5367                 0.2580                 4.7769

                     28                     29                     30
                      A                      A                      A
 Frequencies --    491.7083               495.6293               582.4846
 Red. masses --      2.5419                 2.6444                 3.4000
 Frc consts  --      0.3621                 0.3827                 0.6797
 IR Inten    --      6.4656                 1.3785                 3.3131

                     31                     32                     33
                      A                      A                      A
 Frequencies --    612.3940               623.4964               756.0569
 Red. masses --      3.8773                 1.0637                 1.8570
 Frc consts  --      0.8567                 0.2436                 0.6254
 IR Inten    --     10.3947               194.5282                 0.4637

                     34                     35                     36
                      A                      A                      A
 Frequencies --    762.1084               768.3001               769.2255
 Red. masses --      1.3574                 1.2041                 1.4372
 Frc consts  --      0.4645                 0.4188                 0.5010
 IR Inten    --      3.6101                 0.1090                 4.8383

                     37                     38                     39
                      A                      A                      A
 Frequencies --    850.1267               860.5474               866.0862
 Red. masses --      1.4761                 1.6169                 2.4149
 Frc consts  --      0.6285                 0.7055                 1.0673
 IR Inten    --      5.0910                19.8300                13.5238

                     40                     41                     42
                      A                      A                      A
 Frequencies --    910.3225               920.8734               930.4355
 Red. masses --      2.4696                 2.5492                 3.9572
 Frc consts  --      1.2058                 1.2737                 2.0184
 IR Inten    --      5.6433                 8.8885                50.6168

                     43                     44                     45
                      A                      A                      A
 Frequencies --    944.6003               998.0025              1002.9603
 Red. masses --      2.2126                 1.6930                 1.5853
 Frc consts  --      1.1632                 0.9935                 0.9396
 IR Inten    --     52.6278                 0.0180                 0.3302

                     46                     47                     48
                      A                      A                      A
 Frequencies --   1017.8392              1025.2166              1026.5692
 Red. masses --      1.7392                 2.9115                 1.5130
 Frc consts  --      1.0616                 1.8030                 0.9394
 IR Inten    --     55.2711                 1.4444                 1.8619

                     49                     50                     51
                      A                      A                      A
 Frequencies --   1029.8326              1033.5263              1049.9124
 Red. masses --      3.2781                 1.5047                 1.6736
 Frc consts  --      2.0484                 0.9470                 1.0869
 IR Inten    --     11.6742                 4.2053                10.0915

                     52                     53                     54
                      A                      A                      A
 Frequencies --   1082.2796              1109.0586              1112.4176
 Red. masses --      1.8121                 2.0375                 1.8719
 Frc consts  --      1.2506                 1.4766                 1.3648
 IR Inten    --      9.1304                 8.3334                17.3026

                     55                     56                     57
                      A                      A                      A
 Frequencies --   1129.4100              1143.9422              1167.9980
 Red. masses --      1.9440                 2.0657                 2.2613
 Frc consts  --      1.4610                 1.5926                 1.8176
 IR Inten    --      4.3572                 8.6104                 0.4036

                     58                     59                     60
                      A                      A                      A
 Frequencies --   1238.0947              1257.3718              1261.4705
 Red. masses --      3.7789                 1.2331                 1.2059
 Frc consts  --      3.4129                 1.1487                 1.1306
 IR Inten    --    329.4906                 3.2883                 1.5647

                     61                     62                     63
                      A                      A                      A
 Frequencies --   1275.1952              1291.1526              1292.2631
 Red. masses --      1.1463                 1.2170                 1.2327
 Frc consts  --      1.0983                 1.1954                 1.2129
 IR Inten    --      8.7080                 1.6097                 9.1718

                     64                     65                     66
                      A                      A                      A
 Frequencies --   1298.5634              1332.1765              1349.5309
 Red. masses --      1.2460                 1.2036                 1.3201
 Frc consts  --      1.2379                 1.2585                 1.4165
 IR Inten    --      2.2846                26.6611                 1.8824

                     67                     68                     69
                      A                      A                      A
 Frequencies --   1352.7224              1359.5563              1380.2763
 Red. masses --      1.3505                 1.2880                 1.2770
 Frc consts  --      1.4560                 1.4027                 1.4334
 IR Inten    --      0.8933                 1.5273                16.0147

                     70                     71                     72
                      A                      A                      A
 Frequencies --   1385.3215              1389.2024              1393.1012
 Red. masses --      1.2562                 1.4592                 1.2503
 Frc consts  --      1.4204                 1.6592                 1.4297
 IR Inten    --     22.9784                 0.2731                 2.5914

                     73                     74                     75
                      A                      A                      A
 Frequencies --   1398.8161              1402.6063              1407.3112
 Red. masses --      1.2520                 1.2202                 1.2302
 Frc consts  --      1.4433                 1.4143                 1.4355
 IR Inten    --      3.3761                 0.6303                 1.4861

                     76                     77                     78
                      A                      A                      A
 Frequencies --   1421.9829              1464.2927              1464.9198
 Red. masses --      1.3893                 1.0733                 1.0634
 Frc consts  --      1.6551                 1.3559                 1.3445
 IR Inten    --     17.8317                 0.7095                 4.0310

                     79                     80                     81
                      A                      A                      A
 Frequencies --   1466.3137              1473.3917              1475.3063
 Red. masses --      1.0718                 1.0714                 1.0715
 Frc consts  --      1.3577                 1.3704                 1.3740
 IR Inten    --      0.8554                 0.5552                 0.5948

                     82                     83                     84
                      A                      A                      A
 Frequencies --   1479.3110              1485.9566              1487.9378
 Red. masses --      1.0706                 1.0534                 1.0503
 Frc consts  --      1.3804                 1.3704                 1.3701
 IR Inten    --      9.4109                 6.5878                 7.8845

                     85                     86                     87
                      A                      A                      A
 Frequencies --   1489.3568              1490.6189              1500.1809
 Red. masses --      1.0434                 1.0463                 1.0501
 Frc consts  --      1.3637                 1.3698                 1.3924
 IR Inten    --      5.8269                 6.6485                 4.7154

                     88                     89                     90
                      A                      A                      A
 Frequencies --   1502.3697              1502.8356              1505.7270
 Red. masses --      1.0479                 1.0472                 1.0544
 Frc consts  --      1.3936                 1.3934                 1.4085
 IR Inten    --      4.6770                10.5664                 5.1680

                     91                     92                     93
                      A                      A                      A
 Frequencies --   1692.9377              2882.0728              2949.4053
 Red. masses --      9.9522                 1.0807                 1.0599
 Frc consts  --     16.8056                 5.2887                 5.4322
 IR Inten    --    221.7453                65.2255                17.4230

                     94                     95                     96
                      A                      A                      A
 Frequencies --   2962.9936              2963.3985              2969.9041
 Red. masses --      1.0588                 1.0594                 1.0597
 Frc consts  --      5.4770                 5.4814                 5.5072
 IR Inten    --      2.0316                50.4331                57.1067

                     97                     98                     99
                      A                      A                      A
 Frequencies --   2971.5208              2983.2393              2986.2081
 Red. masses --      1.0419                 1.0404                 1.0436
 Frc consts  --      5.4203                 5.4556                 5.4833
 IR Inten    --     30.0981                28.5841                27.1263

                    100                    101                    102
                      A                      A                      A
 Frequencies --   2987.7036              2988.1426              2995.3096
 Red. masses --      1.0858                 1.0352                 1.0990
 Frc consts  --      5.7103                 5.4459                 5.8095
 IR Inten    --     10.1975                16.4257                 4.7609

                    103                    104                    105
                      A                      A                      A
 Frequencies --   2997.2555              2998.3819              2999.8208
 Red. masses --      1.0980                 1.0390                 1.0980
 Frc consts  --      5.8119                 5.5035                 5.8219
 IR Inten    --      4.8386                 9.1561                44.4992

                    106                    107                    108
                      A                      A                      A
 Frequencies --   3021.2670              3031.7785              3044.5317
 Red. masses --      1.0917                 1.0992                 1.1018
 Frc consts  --      5.8714                 5.9526                 6.0174
 IR Inten    --     22.4320                68.4302                85.7299

                    109                    110                    111
                      A                      A                      A
 Frequencies --   3050.8562              3054.0237              3054.9634
 Red. masses --      1.1015                 1.1023                 1.1009
 Frc consts  --      6.0408                 6.0577                 6.0536
 IR Inten    --     33.3546                37.4051                12.0417

                    112                    113                    114
                      A                      A                      A
 Frequencies --   3056.7868              3057.9428              3062.5118
 Red. masses --      1.1023                 1.1017                 1.1001
 Frc consts  --      6.0686                 6.0700                 6.0792
 IR Inten    --     20.5380                62.0782                32.9292

                    115                    116                    117
                      A                      A                      A
 Frequencies --   3066.2631              3105.0693              3526.8358
 Red. masses --      1.0961                 1.1056                 1.0667
 Frc consts  --      6.0716                 6.2807                 7.8177
 IR Inten    --      6.3865                 5.4714               216.6082

 - Thermochemistry -
 -------------------
 Temperature   298.150 Kelvin.  Pressure   1.00000 Atm.
 Thermochemistry will use frequencies scaled by 0.9920.

 Molecular mass:   218.18819 amu.
 Principal axes and moments of inertia in atomic units:
                           1         2         3
     Eigenvalues --  2388.680165852.404676168.82081
           X            0.99993   0.00061  -0.01217
           Y           -0.00121   0.99879  -0.04916
           Z            0.01212   0.04917   0.99872
 This molecule is an asymmetric top.
 Rotational symmetry number  1.
 Warning -- assumption of classical behavior for rotation
           may cause significant error
 Rotational temperatures (Kelvin)      0.03626     0.01480     0.01404
 Rotational constants (GHZ):           0.75554     0.30838     0.29256
    1 imaginary frequencies ignored.
 Zero-point vibrational energy     943817.8 (Joules/Mol)
                                  225.57788 (Kcal/Mol)
 Warning -- explicit consideration of  31 degrees of freedom as
           vibrations may cause significant error
 Vibrational temperatures:     20.33    24.67    62.72    82.18   100.30
          (Kelvin)            119.82   134.40   139.18   145.99   176.88
                              182.82   219.51   257.00   281.17   294.55
                              314.35   343.91   350.10   357.65   445.85
                              448.47   506.09   558.04   607.77   655.22
                              673.91   701.80   707.40   831.36   874.05
                              889.90  1079.09  1087.73  1096.57  1097.89
                             1213.36  1228.23  1236.14  1299.27  1314.33
                             1327.98  1348.20  1424.42  1431.49  1452.73
                             1463.26  1465.19  1469.85  1475.12  1498.51
                             1544.70  1582.92  1587.72  1611.97  1632.71
                             1667.04  1767.09  1794.60  1800.45  1820.04
                             1842.82  1844.40  1853.40  1901.37  1926.14
                             1930.70  1940.45  1970.02  1977.22  1982.76
                             1988.33  1996.48  2001.89  2008.61  2029.55
                             2089.94  2090.83  2092.82  2102.92  2105.66
                             2111.37  2120.86  2123.68  2125.71  2127.51
                             2141.16  2144.28  2144.95  2149.07  2416.27
                             4113.49  4209.59  4228.98  4229.56  4238.85
                             4241.15  4257.88  4262.12  4264.25  4264.88
                             4275.11  4277.88  4279.49  4281.54  4312.15
                             4327.16  4345.36  4354.39  4358.91  4360.25
                             4362.85  4364.50  4371.02  4376.38  4431.76
                             5033.74

 Zero-point correction=                           0.359481 (Hartree/Particle)
 Thermal correction to Energy=                    0.380018
 Thermal correction to Enthalpy=                  0.380962
 Thermal correction to Gibbs Free Energy=         0.307983
 Sum of electronic and zero-point Energies=           -697.974617
 Sum of electronic and thermal Energies=              -697.954081
 Sum of electronic and thermal Enthalpies=            -697.953137
 Sum of electronic and thermal Free Energies=         -698.026116

                     E (Thermal)             CV                S
                      KCal/Mol        Cal/Mol-Kelvin    Cal/Mol-Kelvin
 Total                  238.465             72.984            153.598
 Electronic               0.000              0.000              0.000
 Translational            0.889              2.981             42.044
 Rotational               0.889              2.981             32.822
 Vibrational            236.687             67.023             78.732
 Vibration     1          0.593              1.986              7.325
 Vibration     2          0.593              1.986              6.940
 Vibration     3          0.595              1.980              5.089
 Vibration     4          0.596              1.975              4.554
 Vibration     5          0.598              1.969              4.161
 Vibration     6          0.600              1.961              3.812
 Vibration     7          0.602              1.954              3.587
 Vibration     8          0.603              1.952              3.519
 Vibration     9          0.604              1.948              3.426
 Vibration    10          0.610              1.930              3.054
 Vibration    11          0.611              1.926              2.990
 Vibration    12          0.619              1.900              2.640
 Vibration    13          0.629              1.869              2.343
 Vibration    14          0.636              1.846              2.176
 Vibration    15          0.640              1.833              2.090
 Vibration    16          0.646              1.813              1.972
 Vibration    17          0.657              1.781              1.810
 Vibration    18          0.659              1.774              1.778
 Vibration    19          0.662              1.765              1.741
 Vibration    20          0.699              1.655              1.363
 Vibration    21          0.700              1.651              1.353
 Vibration    22          0.728              1.572              1.158
 Vibration    23          0.756              1.496              1.008
 Vibration    24          0.785              1.421              0.884
 Vibration    25          0.814              1.349              0.780
 Vibration    26          0.826              1.320              0.742
 Vibration    27          0.844              1.277              0.689
 Vibration    28          0.847              1.269              0.679
 Vibration    29          0.934              1.079              0.489
 Vibration    30          0.966              1.016              0.437
 Vibration    31          0.978              0.993              0.419

 Normal termination of Gaussian 16 at Sat Jan 21 11:12:23 2023.
