 Gaussian 16, Revision A.03,
 Gaussian 16:  EM64L-G16RevA.03 25-Dec-2016

 -------------------------------------------------------
 #p BLYP/6-31G* EmpiricalDispersion=GD3 freq scale=0.992
 -------------------------------------------------------

 --------------------------------------------
 Conformer name C12H26O3_pair_037_041_allign.
 --------------------------------------------
 Symbolic Z-matrix:
 Charge =  0 Multiplicity = 1

                         Standard orientation:
 ---------------------------------------------------------------------
 Center     Atomic      Atomic             Coordinates (Angstroms)
 Number     Number       Type             X           Y           Z
 ---------------------------------------------------------------------
      1          1           0        0.273645   -1.832147   -1.161362
      2          6           0        0.805957   -2.407097   -0.385068
      3          6           0        2.294316   -2.008321   -0.316102
      4          1           0        0.304183   -2.213807    0.572403
      5          1           0        0.696394   -3.477498   -0.623501
      6          1           0        2.805696   -2.272273   -1.258897
      7          1           0        2.796587   -2.573382    0.489168
      8          6           0        2.518257   -0.506787   -0.061755
      9          6           0        4.015954   -0.126388   -0.018097
     10          1           0        2.036636    0.066188   -0.883338
     11          1           0        4.484194   -0.450499   -0.964658
     12          1           0        4.497441   -0.699313    0.793630
     13          8           0        1.856135   -0.200303    1.194579
     14          1           0        1.969221    0.753836    1.365404
     15          6           0        4.262608    1.384186    0.183427
     16          1           0        3.765139    1.978634   -0.601728
     17          1           0        5.337174    1.622514    0.157235
     18          1           0        3.882666    1.731649    1.159844
     19          1           0       -3.886791    1.625765   -0.453517
     20          6           0       -3.303001    2.362875    0.119459
     21          6           0       -2.171581    1.667278    0.904217
     22          1           0       -2.913492    3.108597   -0.592432
     23          1           0       -3.990232    2.885214    0.803192
     24          1           0       -2.592279    1.027459    1.694421
     25          1           0       -1.544562    2.418067    1.416880
     26          6           0       -1.243343    0.781387    0.045007
     27          6           0       -0.547694    1.487700   -1.132662
     28          1           0       -0.488693    0.306486    0.691458
     29          1           0       -1.307345    1.875553   -1.831495
     30          1           0        0.021891    0.725085   -1.688703
     31          8           0       -2.031298   -0.304042   -0.592582
     32          6           0       -2.363097   -1.374469    0.195891
     33          8           0       -2.109607   -1.466873    1.391112
     34          6           0       -3.037119   -2.454401   -0.639134
     35          1           0       -3.607525   -3.121700    0.018601
     36          1           0       -3.686595   -2.018984   -1.411323
     37          1           0       -2.253806   -3.041649   -1.146000
     38          6           0        0.394149    2.625783   -0.689074
     39          1           0        0.952562    3.031735   -1.546994
     40          1           0        1.131881    2.265572    0.046076
     41          1           0       -0.158267    3.458160   -0.225902
 ---------------------------------------------------------------------

 SCF Done:  E(RB-LYP) =  -698.324218626     A.U. after   16 cycles

 The electronic state is 1-A.
 Alpha  occ. eigenvalues --  -18.82258 -18.79170 -18.77089 -10.03522  -9.96775
 Alpha  occ. eigenvalues --   -9.96753  -9.92660  -9.92346  -9.92288  -9.92277
 Alpha  occ. eigenvalues --   -9.92211  -9.91621  -9.91551  -9.91038  -9.90160
 Alpha  occ. eigenvalues --   -0.97114  -0.90997  -0.89463  -0.71743  -0.70194
 Alpha  occ. eigenvalues --   -0.66769  -0.66519  -0.65728  -0.60211  -0.59674
 Alpha  occ. eigenvalues --   -0.55359  -0.53146  -0.51348  -0.50354  -0.46413
 Alpha  occ. eigenvalues --   -0.45229  -0.42160  -0.40621  -0.40471  -0.40096
 Alpha  occ. eigenvalues --   -0.39005  -0.37786  -0.37414  -0.36129  -0.35947
 Alpha  occ. eigenvalues --   -0.35539  -0.35221  -0.34728  -0.34184  -0.32503
 Alpha  occ. eigenvalues --   -0.31881  -0.31444  -0.31336  -0.30833  -0.30583
 Alpha  occ. eigenvalues --   -0.30083  -0.29135  -0.28872  -0.28307  -0.28040
 Alpha  occ. eigenvalues --   -0.27564  -0.26537  -0.25922  -0.23342  -0.20796
 Alpha  occ. eigenvalues --   -0.20159
 Alpha virt. eigenvalues --   -0.01015   0.02310   0.05873   0.07119   0.07750
 Alpha virt. eigenvalues --    0.08752   0.09451   0.09878   0.10752   0.11067
 Alpha virt. eigenvalues --    0.11777   0.12473   0.13075   0.13249   0.13956

 Mulliken charges:
               1
     1  H    0.128401
     2  C   -0.438154
     3  C   -0.222885
     4  H    0.180799
     5  H    0.118871
     6  H    0.110401
     7  H    0.124638
     8  C    0.143050
     9  C   -0.223222
    10  H    0.096468
    11  H    0.115120
    12  H    0.126502
    13  O   -0.589539
    14  H    0.381541
    15  C   -0.429267
    16  H    0.135411
    17  H    0.138372
    18  H    0.122060
    19  H    0.140250
    20  C   -0.414378
    21  C   -0.246308
    22  H    0.129369
    23  H    0.129292
    24  H    0.151696
    25  H    0.116968
    26  C    0.121964
    27  C   -0.246794
    28  H    0.160835
    29  H    0.129678
    30  H    0.136226
    31  O   -0.438242
    32  C    0.585280
    33  O   -0.448906
    34  C   -0.489796
    35  H    0.162938
    36  H    0.157392
    37  H    0.172966
    38  C   -0.424921
    39  H    0.135415
    40  H    0.118972
    41  H    0.141537
 Sum of Mulliken charges =  -0.00000

 Dipole moment (field-independent basis, Debye):
    X=              1.2143    Y=              1.5968    Z=             -2.1723  Tot=              2.9569
 Quadrupole moment (field-independent basis, Debye-Ang):
   XX=            -90.7084   YY=            -92.3495   ZZ=           -100.3870
   XY=              1.9622   XZ=              2.1166   YZ=              5.5745

  Exact polarizability: 155.086   6.808 154.477  -0.581   1.241 120.993
 Approx polarizability: 214.442   5.935 229.080   1.703  -6.232 235.778

 ******    1 imaginary frequencies (negative Signs) ******

                      1                      2                      3
                      A                      A                      A
 Frequencies --    -54.5333                20.3225                29.3568
 Red. masses --      1.0414                 3.5565                 3.0148
 Frc consts  --      0.0018                 0.0009                 0.0015
 IR Inten    --      0.3767                 1.3609                 9.6788

                      4                      5                      6
                      A                      A                      A
 Frequencies --     39.4777                54.8530                56.7794
 Red. masses --      3.4224                 2.7409                 2.5553
 Frc consts  --      0.0031                 0.0049                 0.0049
 IR Inten    --      2.9931                 0.9493                 3.7665

                      7                      8                      9
                      A                      A                      A
 Frequencies --     74.7328                83.5946                95.3207
 Red. masses --      2.6069                 3.4811                 3.0706
 Frc consts  --      0.0086                 0.0143                 0.0164
 IR Inten    --      1.4882                 9.0890                 6.3322

                     10                     11                     12
                      A                      A                      A
 Frequencies --    103.3310               107.9908               122.2960
 Red. masses --      3.7632                 3.3818                 2.3089
 Frc consts  --      0.0237                 0.0232                 0.0203
 IR Inten    --      0.2056                 7.8638                 7.8907

                     13                     14                     15
                      A                      A                      A
 Frequencies --    137.3470               158.7060               175.8759
 Red. masses --      1.8430                 1.7377                 1.3026
 Frc consts  --      0.0205                 0.0258                 0.0237
 IR Inten    --      4.5736                12.8173               103.7076

                     16                     17                     18
                      A                      A                      A
 Frequencies --    204.2160               213.3867               235.3036
 Red. masses --      2.3148                 1.0800                 1.1626
 Frc consts  --      0.0569                 0.0290                 0.0379
 IR Inten    --      1.8771                 2.2340                16.8196

                     19                     20                     21
                      A                      A                      A
 Frequencies --    251.2006               261.4029               277.0879
 Red. masses --      2.3540                 1.2377                 2.1591
 Frc consts  --      0.0875                 0.0498                 0.0977
 IR Inten    --     10.2907                10.9446                 9.9338

                     22                     23                     24
                      A                      A                      A
 Frequencies --    308.3614               314.3250               325.8890
 Red. masses --      2.4647                 3.0997                 2.7188
 Frc consts  --      0.1381                 0.1804                 0.1701
 IR Inten    --      2.0661                 2.2802                 1.6982

                     25                     26                     27
                      A                      A                      A
 Frequencies --    383.6775               392.2266               472.2427
 Red. masses --      3.1950                 3.2674                 2.3113
 Frc consts  --      0.2771                 0.2962                 0.3037
 IR Inten    --      3.7508                 1.8747                 6.2861

                     28                     29                     30
                      A                      A                      A
 Frequencies --    482.8845               485.2164               552.4010
 Red. masses --      2.8364                 2.4608                 2.6271
 Frc consts  --      0.3897                 0.3414                 0.4723
 IR Inten    --      2.1456                 3.3982                 1.9201

                     31                     32                     33
                      A                      A                      A
 Frequencies --    597.3234               624.8945               751.6193
 Red. masses --      2.9019                 3.7796                 1.7036
 Frc consts  --      0.6100                 0.8696                 0.5670
 IR Inten    --      4.9058                 3.3151                 1.1364

                     34                     35                     36
                      A                      A                      A
 Frequencies --    758.5900               772.5858               779.7905
 Red. masses --      1.5854                 1.2880                 1.4518
 Frc consts  --      0.5375                 0.4530                 0.5201
 IR Inten    --      1.9333                 1.6125                 1.5404

                     37                     38                     39
                      A                      A                      A
 Frequencies --    833.5110               853.1103               856.3821
 Red. masses --      1.5451                 1.7516                 2.2778
 Frc consts  --      0.6324                 0.7511                 0.9842
 IR Inten    --      8.8214                12.1231                 5.5440

                     40                     41                     42
                      A                      A                      A
 Frequencies --    902.1209               903.8284               929.6932
 Red. masses --      2.3040                 2.3754                 2.8746
 Frc consts  --      1.1048                 1.1433                 1.4639
 IR Inten    --      3.6689                24.5354                56.9161

                     43                     44                     45
                      A                      A                      A
 Frequencies --    938.2263               993.1612              1000.0020
 Red. masses --      2.2348                 2.1438                 1.7582
 Frc consts  --      1.1590                 1.2459                 1.0359
 IR Inten    --     49.7110                17.1752                54.4075

                     46                     47                     48
                      A                      A                      A
 Frequencies --   1002.9867              1017.6459              1021.8572
 Red. masses --      1.7785                 1.7137                 1.8597
 Frc consts  --      1.0541                 1.0456                 1.1441
 IR Inten    --      0.3586                 5.4226                10.1984

                     49                     50                     51
                      A                      A                      A
 Frequencies --   1030.0259              1032.5875              1040.0406
 Red. masses --      2.1894                 1.7631                 1.7426
 Frc consts  --      1.3686                 1.1076                 1.1106
 IR Inten    --      4.2413                 1.8084                15.3970

                     52                     53                     54
                      A                      A                      A
 Frequencies --   1059.1774              1103.3327              1124.3266
 Red. masses --      1.5515                 1.8144                 1.8807
 Frc consts  --      1.0255                 1.3014                 1.4008
 IR Inten    --     11.6925                27.7483                22.9366

                     55                     56                     57
                      A                      A                      A
 Frequencies --   1129.1998              1147.6064              1169.9377
 Red. masses --      1.9302                 2.0689                 2.2131
 Frc consts  --      1.4501                 1.6054                 1.7847
 IR Inten    --      3.2474                11.9752                11.4003

                     58                     59                     60
                      A                      A                      A
 Frequencies --   1216.4569              1233.6855              1259.2937
 Red. masses --      3.6322                 1.3179                 1.2214
 Frc consts  --      3.1667                 1.1818                 1.1412
 IR Inten    --    285.5095                39.0463                 2.8944

                     61                     62                     63
                      A                      A                      A
 Frequencies --   1268.2419              1283.4559              1293.6498
 Red. masses --      1.1883                 1.1580                 1.2610
 Frc consts  --      1.1261                 1.1239                 1.2434
 IR Inten    --      6.9175                 4.5332                 9.8711

                     64                     65                     66
                      A                      A                      A
 Frequencies --   1306.4059              1319.9900              1348.6841
 Red. masses --      1.1679                 1.2980                 1.4587
 Frc consts  --      1.1744                 1.3324                 1.5633
 IR Inten    --      5.0774                 3.3123                 3.6249

                     67                     68                     69
                      A                      A                      A
 Frequencies --   1352.7456              1372.2511              1373.4290
 Red. masses --      1.3665                 1.2408                 1.2347
 Frc consts  --      1.4733                 1.3766                 1.3723
 IR Inten    --      0.7908                27.1635                12.7125

                     70                     71                     72
                      A                      A                      A
 Frequencies --   1379.1546              1388.8711              1398.5854
 Red. masses --      1.2458                 1.3855                 1.2231
 Frc consts  --      1.3962                 1.5746                 1.4096
 IR Inten    --      0.6636                 6.0465                 0.2202

                     73                     74                     75
                      A                      A                      A
 Frequencies --   1399.7858              1404.0723              1408.1062
 Red. masses --      1.3873                 1.3134                 1.2624
 Frc consts  --      1.6015                 1.5256                 1.4747
 IR Inten    --      7.8102                 0.0967                 7.7953

                     76                     77                     78
                      A                      A                      A
 Frequencies --   1415.2896              1463.5350              1464.6061
 Red. masses --      1.2569                 1.0548                 1.0784
 Frc consts  --      1.4833                 1.3312                 1.3629
 IR Inten    --      1.9894                 8.8546                 0.4018

                     79                     80                     81
                      A                      A                      A
 Frequencies --   1468.7957              1474.1912              1481.2594
 Red. masses --      1.0531                 1.0782                 1.0551
 Frc consts  --      1.3386                 1.3805                 1.3640
 IR Inten    --      5.2027                 0.2307                 3.1722

                     82                     83                     84
                      A                      A                      A
 Frequencies --   1484.3915              1490.0219              1494.6877
 Red. masses --      1.0484                 1.0628                 1.0447
 Frc consts  --      1.3610                 1.3902                 1.3752
 IR Inten    --      8.8183                 8.5173                 2.4936

                     85                     86                     87
                      A                      A                      A
 Frequencies --   1496.5060              1497.9974              1500.5889
 Red. masses --      1.0513                 1.0469                 1.0492
 Frc consts  --      1.3871                 1.3842                 1.3919
 IR Inten    --      6.6809                 5.5563                 4.2902

                     88                     89                     90
                      A                      A                      A
 Frequencies --   1503.0333              1510.4025              1515.1583
 Red. masses --      1.0432                 1.0728                 1.0523
 Frc consts  --      1.3885                 1.4420                 1.4233
 IR Inten    --      7.3928                 3.1886                16.9095

                     91                     92                     93
                      A                      A                      A
 Frequencies --   1734.9930              2889.1963              2959.6385
 Red. masses --     10.5739                 1.0812                 1.0590
 Frc consts  --     18.7534                 5.3177                 5.4656
 IR Inten    --    157.0207                46.4737                 2.4860

                     94                     95                     96
                      A                      A                      A
 Frequencies --   2966.0314              2968.2955              2975.9528
 Red. masses --      1.0471                 1.0501                 1.0669
 Frc consts  --      5.4276                 5.4513                 5.5672
 IR Inten    --     11.5299                80.3079                14.7959

                     97                     98                     99
                      A                      A                      A
 Frequencies --   2979.8481              2981.0571              2985.4562
 Red. masses --      1.0436                 1.0428                 1.0372
 Frc consts  --      5.4599                 5.4600                 5.4469
 IR Inten    --     21.0026                14.9328                39.5278

                    100                    101                    102
                      A                      A                      A
 Frequencies --   2986.5300              2994.6501              2996.9793
 Red. masses --      1.0510                 1.0995                 1.0387
 Frc consts  --      5.5234                 5.8096                 5.4965
 IR Inten    --     28.0330                 3.4997                 4.1680

                    103                    104                    105
                      A                      A                      A
 Frequencies --   3003.3785              3008.4493              3025.4968
 Red. masses --      1.1009                 1.0964                 1.0914
 Frc consts  --      5.8508                 5.8465                 5.8859
 IR Inten    --     25.6111                17.6627                 2.8613

                    106                    107                    108
                      A                      A                      A
 Frequencies --   3027.6540              3028.4947              3035.3327
 Red. masses --      1.1014                 1.0949                 1.1011
 Frc consts  --      5.9485                 5.9170                 5.9771
 IR Inten    --     63.2046                 1.3366                59.2634

                    109                    110                    111
                      A                      A                      A
 Frequencies --   3045.1275              3047.5182              3048.4607
 Red. masses --      1.0998                 1.0999                 1.0991
 Frc consts  --      6.0086                 6.0186                 6.0180
 IR Inten    --     82.0193                 4.7607                75.6844

                    112                    113                    114
                      A                      A                      A
 Frequencies --   3052.4385              3054.9104              3063.5563
 Red. masses --      1.1020                 1.1019                 1.0958
 Frc consts  --      6.0497                 6.0591                 6.0594
 IR Inten    --     19.3438                47.4449                11.1634

                    115                    116                    117
                      A                      A                      A
 Frequencies --   3086.0525              3105.0151              3649.3817
 Red. masses --      1.0973                 1.1044                 1.0659
 Frc consts  --      6.1571                 6.2737                 8.3635
 IR Inten    --     11.1152                10.3734                 2.3259

 - Thermochemistry -
 -------------------
 Temperature   298.150 Kelvin.  Pressure   1.00000 Atm.
 Thermochemistry will use frequencies scaled by 0.9920.

 Molecular mass:   218.18819 amu.
 Principal axes and moments of inertia in atomic units:
                           1         2         3
     Eigenvalues --  2660.793145270.794477020.19352
           X            0.99999  -0.00411   0.00185
           Y            0.00408   0.99987   0.01567
           Z           -0.00192  -0.01566   0.99988
 This molecule is an asymmetric top.
 Rotational symmetry number  1.
 Warning -- assumption of classical behavior for rotation
           may cause significant error
 Rotational temperatures (Kelvin)      0.03255     0.01643     0.01234
 Rotational constants (GHZ):           0.67827     0.34240     0.25708
    1 imaginary frequencies ignored.
 Zero-point vibrational energy     942002.4 (Joules/Mol)
                                  225.14399 (Kcal/Mol)
 Warning -- explicit consideration of  31 degrees of freedom as
           vibrations may cause significant error
 Vibrational temperatures:     29.01    41.90    56.35    78.29    81.04
          (Kelvin)            106.66   119.31   136.05   147.48   154.13
                              174.55   196.03   226.52   251.02   291.47
                              304.56   335.84   358.53   373.09   395.48
                              440.11   448.63   465.13   547.61   559.81
                              674.02   689.20   692.53   788.42   852.54
                              891.89  1072.76  1082.71  1102.69  1112.97
                             1189.64  1217.62  1222.29  1287.57  1290.00
                             1326.92  1339.10  1417.51  1427.27  1431.53
                             1452.45  1458.46  1470.12  1473.78  1484.42
                             1511.73  1574.75  1604.71  1611.67  1637.94
                             1669.81  1736.21  1760.80  1797.35  1810.12
                             1831.83  1846.38  1864.59  1883.98  1924.93
                             1930.73  1958.57  1960.25  1968.42  1982.29
                             1996.15  1997.87  2003.99  2009.74  2020.00
                             2088.85  2090.38  2096.36  2104.06  2114.15
                             2118.62  2126.66  2133.32  2135.91  2138.04
                             2141.74  2145.23  2155.75  2162.54  2476.30
                             4123.65  4224.19  4233.32  4236.55  4247.48
                             4253.04  4254.76  4261.04  4262.57  4274.16
                             4277.49  4286.62  4293.86  4318.19  4321.27
                             4322.47  4332.23  4346.21  4349.62  4350.97
                             4356.64  4360.17  4372.51  4404.62  4431.68
                             5208.64

 Zero-point correction=                           0.358790 (Hartree/Particle)
 Thermal correction to Energy=                    0.379839
 Thermal correction to Enthalpy=                  0.380783
 Thermal correction to Gibbs Free Energy=         0.306904
 Sum of electronic and zero-point Energies=           -697.965429
 Sum of electronic and thermal Energies=              -697.944379
 Sum of electronic and thermal Enthalpies=            -697.943435
 Sum of electronic and thermal Free Energies=         -698.017315

                     E (Thermal)             CV                S
                      KCal/Mol        Cal/Mol-Kelvin    Cal/Mol-Kelvin
 Total                  238.353             73.905            155.493
 Electronic               0.000              0.000              0.000
 Translational            0.889              2.981             42.044
 Rotational               0.889              2.981             32.954
 Vibrational            236.575             67.943             80.496
 Vibration     1          0.593              1.986              6.618
 Vibration     2          0.593              1.984              5.888
 Vibration     3          0.594              1.981              5.301
 Vibration     4          0.596              1.976              4.650
 Vibration     5          0.596              1.975              4.582
 Vibration     6          0.599              1.966              4.040
 Vibration     7          0.600              1.961              3.820
 Vibration     8          0.603              1.953              3.563
 Vibration     9          0.605              1.947              3.406
 Vibration    10          0.606              1.944              3.320
 Vibration    11          0.609              1.931              3.079
 Vibration    12          0.614              1.917              2.856
 Vibration    13          0.621              1.894              2.580
 Vibration    14          0.627              1.874              2.387
 Vibration    15          0.639              1.836              2.110
 Vibration    16          0.643              1.823              2.029
 Vibration    17          0.654              1.790              1.852
 Vibration    18          0.662              1.764              1.736
 Vibration    19          0.668              1.747              1.666
 Vibration    20          0.677              1.720              1.565
 Vibration    21          0.696              1.663              1.384
 Vibration    22          0.700              1.651              1.353
 Vibration    23          0.708              1.629              1.293
 Vibration    24          0.750              1.512              1.037
 Vibration    25          0.757              1.493              1.004
 Vibration    26          0.826              1.320              0.742
 Vibration    27          0.835              1.297              0.713
 Vibration    28          0.838              1.291              0.706
 Vibration    29          0.903              1.144              0.548
 Vibration    30          0.950              1.048              0.463
 Vibration    31          0.980              0.990              0.417

 Normal termination of Gaussian 16 at Sat Jan 21 11:42:39 2023.
