 Gaussian 16, Revision A.03,
 Gaussian 16:  EM64L-G16RevA.03 25-Dec-2016

 -------------------------------------------------------
 #p BLYP/6-31G* EmpiricalDispersion=GD3 freq scale=0.992
 -------------------------------------------------------

 --------------------------------------------
 Conformer name C12H26O3_pair_003_098_allign.
 --------------------------------------------
 Symbolic Z-matrix:
 Charge =  0 Multiplicity = 1

                         Standard orientation:
 ---------------------------------------------------------------------
 Center     Atomic      Atomic             Coordinates (Angstroms)
 Number     Number       Type             X           Y           Z
 ---------------------------------------------------------------------
      1          1           0       -3.282728   -2.029145    0.968921
      2          6           0       -4.019144   -1.595902    0.275885
      3          6           0       -3.337757   -0.568560   -0.649781
      4          1           0       -4.483414   -2.412657   -0.299375
      5          1           0       -4.806662   -1.119487    0.884308
      6          1           0       -4.082678   -0.105902   -1.322641
      7          1           0       -2.600032   -1.077406   -1.296988
      8          6           0       -2.604734    0.549162    0.129794
      9          6           0       -1.947744    1.589993   -0.810585
     10          1           0       -3.333060    1.067813    0.782695
     11          1           0       -2.698352    1.949209   -1.537968
     12          1           0       -1.168028    1.068495   -1.395476
     13          8           0       -1.626944   -0.009604    1.041762
     14          1           0       -1.049930   -0.591185    0.493985
     15          6           0       -1.339722    2.786094   -0.050387
     16          1           0       -0.785955    3.460118   -0.723708
     17          1           0       -0.652024    2.435616    0.733980
     18          1           0       -2.127329    3.378724    0.444849
     19          1           0        1.022976    2.030444   -1.750062
     20          6           0        2.106159    1.905115   -1.596303
     21          6           0        2.433942    1.700849   -0.103400
     22          1           0        2.434795    1.038287   -2.190204
     23          1           0        2.610673    2.799343   -1.994096
     24          1           0        2.112108    2.583966    0.475490
     25          1           0        3.524725    1.604613    0.039839
     26          6           0        1.738112    0.476273    0.512011
     27          6           0        2.065198    0.242401    1.995636
     28          1           0        0.651729    0.547718    0.379092
     29          1           0        1.838068    1.180291    2.532600
     30          1           0        3.152492    0.074731    2.094528
     31          8           0        2.220390   -0.710373   -0.251627
     32          6           0        1.321120   -1.551546   -0.820235
     33          8           0        0.094701   -1.471036   -0.721882
     34          6           0        2.035199   -2.623615   -1.629524
     35          1           0        2.509010   -2.162850   -2.510797
     36          1           0        2.833632   -3.085926   -1.030956
     37          1           0        1.311988   -3.380596   -1.954767
     38          6           0        1.272863   -0.921769    2.625687
     39          1           0        1.474692   -1.867054    2.097225
     40          1           0        0.190859   -0.727459    2.580077
     41          1           0        1.556309   -1.062564    3.680636
 ---------------------------------------------------------------------

 SCF Done:  E(RB-LYP) =  -698.336582139     A.U. after   16 cycles

 The electronic state is 1-A.
 Alpha  occ. eigenvalues --  -18.84070 -18.79618 -18.76367 -10.05852  -9.97742
 Alpha  occ. eigenvalues --   -9.95128  -9.94099  -9.92839  -9.92477  -9.91734
 Alpha  occ. eigenvalues --   -9.90783  -9.90755  -9.90431  -9.90391  -9.89686
 Alpha  occ. eigenvalues --   -0.99147  -0.91660  -0.88496  -0.72561  -0.68546
 Alpha  occ. eigenvalues --   -0.67206  -0.66934  -0.65414  -0.60623  -0.58104
 Alpha  occ. eigenvalues --   -0.54030  -0.53399  -0.51754  -0.50464  -0.48970
 Alpha  occ. eigenvalues --   -0.44042  -0.42279  -0.40791  -0.40128  -0.38689
 Alpha  occ. eigenvalues --   -0.38407  -0.38099  -0.37968  -0.37567  -0.36281
 Alpha  occ. eigenvalues --   -0.35842  -0.35321  -0.34283  -0.33432  -0.33045
 Alpha  occ. eigenvalues --   -0.32398  -0.31356  -0.30802  -0.30692  -0.29688
 Alpha  occ. eigenvalues --   -0.29192  -0.29179  -0.28790  -0.28028  -0.27592
 Alpha  occ. eigenvalues --   -0.27165  -0.26873  -0.24781  -0.24359  -0.22442
 Alpha  occ. eigenvalues --   -0.18781
 Alpha virt. eigenvalues --   -0.03037   0.05152   0.06774   0.07645   0.07850
 Alpha virt. eigenvalues --    0.08219   0.10141   0.10681   0.11201   0.11690
 Alpha virt. eigenvalues --    0.12325   0.12445   0.13077   0.13550   0.13802

 Mulliken charges:
               1
     1  H    0.142442
     2  C   -0.399996
     3  C   -0.244260
     4  H    0.118388
     5  H    0.121519
     6  H    0.105442
     7  H    0.128499
     8  C    0.152520
     9  C   -0.235016
    10  H    0.099046
    11  H    0.107150
    12  H    0.122625
    13  O   -0.629705
    14  H    0.415161
    15  C   -0.415941
    16  H    0.121384
    17  H    0.148127
    18  H    0.124384
    19  H    0.153358
    20  C   -0.430025
    21  C   -0.227278
    22  H    0.134758
    23  H    0.131843
    24  H    0.130284
    25  H    0.123990
    26  C    0.098562
    27  C   -0.224020
    28  H    0.154020
    29  H    0.127719
    30  H    0.121495
    31  O   -0.416506
    32  C    0.574716
    33  O   -0.453544
    34  C   -0.485539
    35  H    0.171948
    36  H    0.169752
    37  H    0.168711
    38  C   -0.435442
    39  H    0.128121
    40  H    0.174437
    41  H    0.126871
 Sum of Mulliken charges =  -0.00000

 Dipole moment (field-independent basis, Debye):
    X=              2.4652    Y=              0.0358    Z=             -1.3629  Tot=              2.8171
 Quadrupole moment (field-independent basis, Debye-Ang):
   XX=            -94.2690   YY=            -92.5268   ZZ=            -96.0715
   XY=             -3.3426   XZ=              0.8775   YZ=              2.2144

  Exact polarizability: 155.683   3.423 147.451  -0.251   3.273 133.246
 Approx polarizability: 246.895   0.890 221.462   2.129  10.975 212.726

 ******    2 imaginary frequencies (negative Signs) ******

                      1                      2                      3
                      A                      A                      A
 Frequencies --    -93.1476                -6.7705                30.6884
 Red. masses --      1.0290                 3.3788                 4.1405
 Frc consts  --      0.0053                 0.0001                 0.0023
 IR Inten    --      0.7995                 0.2295                 1.2450

                      4                      5                      6
                      A                      A                      A
 Frequencies --     39.4923                51.2068                69.6742
 Red. masses --      2.7595                 4.1713                 2.9812
 Frc consts  --      0.0025                 0.0064                 0.0085
 IR Inten    --      0.3040                 1.7303                 1.2584

                      7                      8                      9
                      A                      A                      A
 Frequencies --     72.9405                83.5096                98.6874
 Red. masses --      3.2760                 3.0630                 2.2759
 Frc consts  --      0.0103                 0.0126                 0.0131
 IR Inten    --      0.2818                 1.1517                 0.4267

                     10                     11                     12
                      A                      A                      A
 Frequencies --    100.7956               116.1152               136.7569
 Red. masses --      1.9810                 1.7268                 1.7677
 Frc consts  --      0.0119                 0.0137                 0.0195
 IR Inten    --      0.4301                 0.6256                 0.0589

                     13                     14                     15
                      A                      A                      A
 Frequencies --    157.7487               184.4739               188.8692
 Red. masses --      3.5918                 2.7907                 1.9573
 Frc consts  --      0.0527                 0.0560                 0.0411
 IR Inten    --      0.3552                 0.9544                 0.2779

                     16                     17                     18
                      A                      A                      A
 Frequencies --    195.8377               208.4845               233.0549
 Red. masses --      2.0337                 1.4779                 1.4610
 Frc consts  --      0.0460                 0.0378                 0.0468
 IR Inten    --      2.2378                 0.5750                 0.5123

                     19                     20                     21
                      A                      A                      A
 Frequencies --    243.7315               266.8047               312.6103
 Red. masses --      1.4593                 1.3127                 3.0816
 Frc consts  --      0.0511                 0.0551                 0.1774
 IR Inten    --      3.4687                 0.2546                 3.4546

                     22                     23                     24
                      A                      A                      A
 Frequencies --    317.0721               353.2771               392.7039
 Red. masses --      3.3841                 3.1127                 3.2142
 Frc consts  --      0.2004                 0.2289                 0.2920
 IR Inten    --      5.8699                 2.6663                 0.1904

                     25                     26                     27
                      A                      A                      A
 Frequencies --    424.1033               458.7591               488.0235
 Red. masses --      3.6344                 2.4415                 2.3155
 Frc consts  --      0.3851                 0.3027                 0.3249
 IR Inten    --      4.6159                 1.8145                 0.2241

                     28                     29                     30
                      A                      A                      A
 Frequencies --    490.3523               499.5282               580.6674
 Red. masses --      2.5767                 2.4891                 3.0394
 Frc consts  --      0.3650                 0.3659                 0.6038
 IR Inten    --      1.5036                 1.1035                 6.0182

                     31                     32                     33
                      A                      A                      A
 Frequencies --    603.0750               636.4858               749.4736
 Red. masses --      4.2176                 1.0945                 1.9172
 Frc consts  --      0.9038                 0.2612                 0.6345
 IR Inten    --     10.7130               158.5181                 1.4546

                     34                     35                     36
                      A                      A                      A
 Frequencies --    766.4658               767.8170               775.1710
 Red. masses --      1.7103                 1.2047                 1.1993
 Frc consts  --      0.5920                 0.4185                 0.4246
 IR Inten    --      0.7504                 0.1742                 0.5936

                     37                     38                     39
                      A                      A                      A
 Frequencies --    848.3624               857.6775               868.5195
 Red. masses --      1.4510                 1.7821                 1.9977
 Frc consts  --      0.6153                 0.7724                 0.8879
 IR Inten    --     17.6835                35.4340                 3.4797

                     40                     41                     42
                      A                      A                      A
 Frequencies --    915.1080               922.9418               929.8756
 Red. masses --      2.5014                 2.5901                 3.9269
 Frc consts  --      1.2342                 1.2999                 2.0006
 IR Inten    --      9.3286                 4.1048                26.3666

                     43                     44                     45
                      A                      A                      A
 Frequencies --    942.4486               992.0892              1007.2356
 Red. masses --      2.2646                 1.6556                 1.5797
 Frc consts  --      1.1851                 0.9601                 0.9442
 IR Inten    --     66.9920                 0.3771                 2.1001

                     46                     47                     48
                      A                      A                      A
 Frequencies --   1010.1116              1025.1979              1026.1255
 Red. masses --      1.7206                 2.7382                 1.6294
 Frc consts  --      1.0344                 1.6956                 1.0108
 IR Inten    --     62.8294                 2.7131                 6.1049

                     49                     50                     51
                      A                      A                      A
 Frequencies --   1027.1911              1035.4673              1038.8422
 Red. masses --      3.6783                 1.5103                 1.6874
 Frc consts  --      2.2866                 0.9541                 1.0729
 IR Inten    --     11.5797                 7.6919                 2.7185

                     52                     53                     54
                      A                      A                      A
 Frequencies --   1099.9999              1108.2140              1111.3032
 Red. masses --      1.8377                 1.8202                 1.8145
 Frc consts  --      1.3101                 1.3171                 1.3203
 IR Inten    --     18.6948                13.9187                23.7146

                     55                     56                     57
                      A                      A                      A
 Frequencies --   1113.1203              1139.5465              1169.8759
 Red. masses --      1.8584                 2.1817                 2.2954
 Frc consts  --      1.3566                 1.6692                 1.8509
 IR Inten    --     13.4771                 0.3479                 0.2334

                     58                     59                     60
                      A                      A                      A
 Frequencies --   1242.2483              1257.1440              1262.2377
 Red. masses --      3.9905                 1.2534                 1.2147
 Frc consts  --      3.6282                 1.1671                 1.1402
 IR Inten    --    292.8822                17.5495                 0.8666

                     61                     62                     63
                      A                      A                      A
 Frequencies --   1263.5776              1287.7919              1293.0181
 Red. masses --      1.2026                 1.2319                 1.1911
 Frc consts  --      1.1313                 1.2037                 1.1733
 IR Inten    --      1.8356                 7.0289                 1.6669

                     64                     65                     66
                      A                      A                      A
 Frequencies --   1303.5575              1343.8471              1352.5426
 Red. masses --      1.2564                 1.3366                 1.3546
 Frc consts  --      1.2579                 1.4221                 1.4600
 IR Inten    --      2.3372                 2.3453                 1.1684

                     67                     68                     69
                      A                      A                      A
 Frequencies --   1368.8199              1370.3523              1375.0296
 Red. masses --      1.2388                 1.2231                 1.4463
 Frc consts  --      1.3676                 1.3532                 1.6111
 IR Inten    --     10.7318                 6.8331                 1.2055

                     70                     71                     72
                      A                      A                      A
 Frequencies --   1380.1971              1392.5719              1395.8816
 Red. masses --      1.3230                 1.3622                 1.2588
 Frc consts  --      1.4849                 1.5564                 1.4451
 IR Inten    --     27.0859                 2.8539                 0.7521

                     73                     74                     75
                      A                      A                      A
 Frequencies --   1399.0829              1403.0756              1409.5766
 Red. masses --      1.2305                 1.2171                 1.2254
 Frc consts  --      1.4191                 1.4116                 1.4345
 IR Inten    --      4.9071                 3.1973                 4.1722

                     76                     77                     78
                      A                      A                      A
 Frequencies --   1435.5395              1460.3660              1463.6222
 Red. masses --      1.1724                 1.0580                 1.0781
 Frc consts  --      1.4235                 1.3294                 1.3607
 IR Inten    --     62.9145                16.0492                 0.0402

                     79                     80                     81
                      A                      A                      A
 Frequencies --   1466.8866              1472.7060              1473.9860
 Red. masses --      1.0482                 1.0734                 1.0758
 Frc consts  --      1.3289                 1.3717                 1.3771
 IR Inten    --      7.8886                 1.7756                 3.0667

                     82                     83                     84
                      A                      A                      A
 Frequencies --   1486.3013              1487.6017              1489.0060
 Red. masses --      1.0598                 1.0552                 1.0438
 Frc consts  --      1.3794                 1.3758                 1.3636
 IR Inten    --      6.3296                 0.4514                 4.7398

                     85                     86                     87
                      A                      A                      A
 Frequencies --   1494.3307              1498.7293              1501.2497
 Red. masses --      1.0473                 1.0401                 1.0578
 Frc consts  --      1.3779                 1.3765                 1.4046
 IR Inten    --      3.3683                 2.2262                 3.0315

                     88                     89                     90
                      A                      A                      A
 Frequencies --   1502.7125              1504.2857              1513.2390
 Red. masses --      1.0501                 1.0542                 1.0564
 Frc consts  --      1.3972                 1.4056                 1.4253
 IR Inten    --      5.0485                 1.3704                 5.2903

                     91                     92                     93
                      A                      A                      A
 Frequencies --   1704.3505              2938.3388              2950.6134
 Red. masses --      9.7412                 1.0830                 1.0588
 Frc consts  --     16.6718                 5.5092                 5.4309
 IR Inten    --    307.9994                25.5831                 2.8924

                     94                     95                     96
                      A                      A                      A
 Frequencies --   2959.0945              2962.6769              2970.1505
 Red. masses --      1.0605                 1.0589                 1.0599
 Frc consts  --      5.4710                 5.4762                 5.5090
 IR Inten    --     55.6662                 6.3874                48.7192

                     97                     98                     99
                      A                      A                      A
 Frequencies --   2975.2267              2976.7659              2984.6707
 Red. masses --      1.0460                 1.0398                 1.0921
 Frc consts  --      5.4554                 5.4284                 5.7320
 IR Inten    --     49.3465                12.8686                11.0425

                    100                    101                    102
                      A                      A                      A
 Frequencies --   2987.0192              2989.8191              2996.0792
 Red. masses --      1.0372                 1.0349                 1.0991
 Frc consts  --      5.4524                 5.4503                 5.8127
 IR Inten    --     29.2075                19.3994                79.5230

                    103                    104                    105
                      A                      A                      A
 Frequencies --   2996.8952              3001.4722              3005.2553
 Red. masses --      1.1011                 1.0373                 1.1008
 Frc consts  --      5.8268                 5.5058                 5.8574
 IR Inten    --      1.9649                 2.3083                35.8699

                    106                    107                    108
                      A                      A                      A
 Frequencies --   3033.7215              3036.5179              3046.6775
 Red. masses --      1.1014                 1.1006                 1.1015
 Frc consts  --      5.9723                 5.9790                 6.0242
 IR Inten    --     58.7846                57.9333                41.4081

                    109                    110                    111
                      A                      A                      A
 Frequencies --   3053.1614              3055.7513              3059.7282
 Red. masses --      1.1019                 1.0998                 1.1012
 Frc consts  --      6.0520                 6.0506                 6.0743
 IR Inten    --     38.1318                32.4401                34.6116

                    112                    113                    114
                      A                      A                      A
 Frequencies --   3060.5727              3063.4866              3069.6915
 Red. masses --      1.1008                 1.0987                 1.1012
 Frc consts  --      6.0753                 6.0749                 6.1137
 IR Inten    --     40.2453                 6.2601                 8.7403

                    115                    116                    117
                      A                      A                      A
 Frequencies --   3079.6894              3111.5436              3496.3599
 Red. masses --      1.0858                 1.1036                 1.0665
 Frc consts  --      6.0675                 6.2951                 7.6818
 IR Inten    --      6.0188                 8.2297               350.4006

 - Thermochemistry -
 -------------------
 Temperature   298.150 Kelvin.  Pressure   1.00000 Atm.
 Thermochemistry will use frequencies scaled by 0.9920.

 Molecular mass:   218.18819 amu.
 Principal axes and moments of inertia in atomic units:
                           1         2         3
     Eigenvalues --  2953.897554947.667595644.64717
           X            0.99990   0.01375   0.00278
           Y           -0.01368   0.99957  -0.02577
           Z           -0.00314   0.02572   0.99966
 This molecule is an asymmetric top.
 Rotational symmetry number  1.
 Warning -- assumption of classical behavior for rotation
           may cause significant error
 Rotational temperatures (Kelvin)      0.02932     0.01751     0.01534
 Rotational constants (GHZ):           0.61097     0.36477     0.31973
    2 imaginary frequencies ignored.
 Zero-point vibrational energy     944610.6 (Joules/Mol)
                                  225.76734 (Kcal/Mol)
 Warning -- explicit consideration of  29 degrees of freedom as
           vibrations may cause significant error
 Vibrational temperatures:     43.80    56.37    73.09    99.44   104.11
          (Kelvin)            119.19   140.85   143.86   165.73   195.19
                              225.15   263.29   269.57   279.51   297.56
                              332.63   347.87   380.80   446.18   452.55
                              504.22   560.49   605.31   654.77   696.54
                              699.86   712.96   828.77   860.75   908.44
                             1069.70  1093.95  1095.88  1106.38  1210.84
                             1224.13  1239.61  1306.10  1317.28  1327.18
                             1345.13  1415.98  1437.59  1441.70  1463.23
                             1464.55  1466.08  1477.89  1482.70  1569.99
                             1581.72  1586.13  1588.72  1626.44  1669.73
                             1773.02  1794.28  1801.55  1803.46  1838.02
                             1845.48  1860.52  1918.03  1930.44  1953.67
                             1955.86  1962.53  1969.91  1987.57  1992.30
                             1996.86  2002.56  2011.84  2048.90  2084.33
                             2088.98  2093.64  2101.94  2103.77  2121.35
                             2123.20  2125.21  2132.81  2139.09  2142.68
                             2144.77  2147.02  2159.80  2432.56  4193.79
                             4211.31  4223.42  4228.53  4239.20  4246.44
                             4248.64  4259.92  4263.27  4267.27  4276.20
                             4277.37  4283.90  4289.30  4329.93  4333.92
                             4348.42  4357.68  4361.37  4367.05  4368.25
                             4372.41  4381.27  4395.54  4441.00  4990.24

 Zero-point correction=                           0.359783 (Hartree/Particle)
 Thermal correction to Energy=                    0.379451
 Thermal correction to Enthalpy=                  0.380395
 Thermal correction to Gibbs Free Energy=         0.310956
 Sum of electronic and zero-point Energies=           -697.976799
 Sum of electronic and thermal Energies=              -697.957131
 Sum of electronic and thermal Enthalpies=            -697.956187
 Sum of electronic and thermal Free Energies=         -698.025626

                     E (Thermal)             CV                S
                      KCal/Mol        Cal/Mol-Kelvin    Cal/Mol-Kelvin
 Total                  238.109             70.974            146.147
 Electronic               0.000              0.000              0.000
 Translational            0.889              2.981             42.044
 Rotational               0.889              2.981             32.778
 Vibrational            236.331             65.013             71.325
 Vibration     1          0.594              1.984              5.800
 Vibration     2          0.594              1.981              5.300
 Vibration     3          0.595              1.977              4.786
 Vibration     4          0.598              1.969              4.178
 Vibration     5          0.598              1.967              4.088
 Vibration     6          0.600              1.961              3.822
 Vibration     7          0.603              1.951              3.496
 Vibration     8          0.604              1.949              3.455
 Vibration     9          0.608              1.937              3.180
 Vibration    10          0.613              1.918              2.864
 Vibration    11          0.620              1.895              2.592
 Vibration    12          0.630              1.863              2.298
 Vibration    13          0.632              1.857              2.254
 Vibration    14          0.635              1.848              2.187
 Vibration    15          0.641              1.830              2.072
 Vibration    16          0.653              1.793              1.870
 Vibration    17          0.658              1.776              1.790
 Vibration    18          0.671              1.738              1.631
 Vibration    19          0.699              1.654              1.362
 Vibration    20          0.702              1.646              1.338
 Vibration    21          0.727              1.574              1.164
 Vibration    22          0.757              1.492              1.002
 Vibration    23          0.783              1.425              0.890
 Vibration    24          0.813              1.350              0.781
 Vibration    25          0.840              1.285              0.699
 Vibration    26          0.842              1.280              0.693
 Vibration    27          0.851              1.260              0.669
 Vibration    28          0.932              1.083              0.493
 Vibration    29          0.956              1.036              0.453

 Normal termination of Gaussian 16 at Sat Jan 21 11:12:45 2023.
