 Gaussian 16, Revision A.03,
 Gaussian 16:  EM64L-G16RevA.03 25-Dec-2016

 -------------------------------------------------------
 #p BLYP/6-31G* EmpiricalDispersion=GD3 freq scale=0.992
 -------------------------------------------------------

 --------------------------------------------
 Conformer name C12H26O3_pair_001_018_allign.
 --------------------------------------------
 Symbolic Z-matrix:
 Charge =  0 Multiplicity = 1

                         Standard orientation:
 ---------------------------------------------------------------------
 Center     Atomic      Atomic             Coordinates (Angstroms)
 Number     Number       Type             X           Y           Z
 ---------------------------------------------------------------------
      1          1           0       -4.482773   -2.412833   -0.299100
      2          6           0       -4.018480   -1.596029    0.276300
      3          6           0       -3.337587   -0.568424   -0.649400
      4          1           0       -4.805883   -1.120035    0.885100
      5          1           0       -3.281776   -2.029523    0.968900
      6          1           0       -4.082891   -0.105729   -1.321800
      7          1           0       -2.599984   -1.076918   -1.297000
      8          6           0       -2.604596    0.549282    0.130300
      9          6           0       -1.947704    1.590287   -0.810200
     10          1           0       -3.332900    1.067876    0.783200
     11          1           0       -2.698507    1.949281   -1.537500
     12          1           0       -1.167900    1.068893   -1.395200
     13          8           0       -1.626492   -0.009411    1.042000
     14          1           0       -1.049587   -0.590906    0.494100
     15          6           0       -1.339813    2.786491   -0.050000
     16          1           0       -2.127518    3.378785    0.445300
     17          1           0       -0.786418    3.460596   -0.723500
     18          1           0       -0.651910    2.436097    0.734100
     19          1           0        1.022293    2.033909   -1.746700
     20          6           0        2.105394    1.907218   -1.594100
     21          6           0        2.434295    1.700720   -0.101800
     22          1           0        2.432700    1.040720   -2.189400
     23          1           0        2.610487    2.801422   -1.991300
     24          1           0        2.113389    2.583218    0.478500
     25          1           0        3.525096    1.603729    0.040400
     26          6           0        1.738405    0.475715    0.512500
     27          6           0        2.065906    0.239917    1.995700
     28          1           0        0.652004    0.547507    0.380000
     29          1           0        1.839399    1.177316    2.533800
     30          1           0        3.153208    0.071826    2.094100
     31          8           0        2.220114   -0.710281   -0.252600
     32          6           0        1.320520   -1.550788   -0.821600
     33          8           0        0.094219   -1.470498   -0.722400
     34          6           0        2.034128   -2.622083   -1.632500
     35          1           0        1.310634   -3.378488   -1.958200
     36          1           0        2.507725   -2.160379   -2.513400
     37          1           0        2.832632   -3.085277   -1.034600
     38          6           0        1.273315   -0.924589    2.624800
     39          1           0        0.191414   -0.729797    2.579800
     40          1           0        1.557116   -1.066786    3.679300
     41          1           0        1.474522   -1.869287    2.095100
 ---------------------------------------------------------------------

 SCF Done:  E(RB-LYP) =  -698.336581557     A.U. after   16 cycles

 The electronic state is 1-A.
 Alpha  occ. eigenvalues --  -18.84070 -18.79618 -18.76365 -10.05851  -9.97743
 Alpha  occ. eigenvalues --   -9.95128  -9.94099  -9.92838  -9.92478  -9.91734
 Alpha  occ. eigenvalues --   -9.90782  -9.90755  -9.90431  -9.90389  -9.89686
 Alpha  occ. eigenvalues --   -0.99149  -0.91662  -0.88495  -0.72563  -0.68544
 Alpha  occ. eigenvalues --   -0.67207  -0.66933  -0.65413  -0.60624  -0.58103
 Alpha  occ. eigenvalues --   -0.54029  -0.53401  -0.51753  -0.50464  -0.48971
 Alpha  occ. eigenvalues --   -0.44041  -0.42280  -0.40791  -0.40128  -0.38690
 Alpha  occ. eigenvalues --   -0.38408  -0.38098  -0.37967  -0.37566  -0.36282
 Alpha  occ. eigenvalues --   -0.35842  -0.35321  -0.34285  -0.33430  -0.33046
 Alpha  occ. eigenvalues --   -0.32400  -0.31355  -0.30802  -0.30691  -0.29688
 Alpha  occ. eigenvalues --   -0.29194  -0.29178  -0.28791  -0.28029  -0.27592
 Alpha  occ. eigenvalues --   -0.27166  -0.26871  -0.24782  -0.24359  -0.22442
 Alpha  occ. eigenvalues --   -0.18779
 Alpha virt. eigenvalues --   -0.03035   0.05153   0.06775   0.07647   0.07850
 Alpha virt. eigenvalues --    0.08219   0.10143   0.10682   0.11201   0.11689
 Alpha virt. eigenvalues --    0.12325   0.12445   0.13079   0.13549   0.13802

 Mulliken charges:
               1
     1  H    0.118348
     2  C   -0.399988
     3  C   -0.244262
     4  H    0.121538
     5  H    0.142429
     6  H    0.105445
     7  H    0.128519
     8  C    0.152540
     9  C   -0.235047
    10  H    0.099054
    11  H    0.107129
    12  H    0.122585
    13  O   -0.629746
    14  H    0.415197
    15  C   -0.415919
    16  H    0.124389
    17  H    0.121396
    18  H    0.148137
    19  H    0.153431
    20  C   -0.430056
    21  C   -0.227270
    22  H    0.134721
    23  H    0.131833
    24  H    0.130285
    25  H    0.124012
    26  C    0.098538
    27  C   -0.224030
    28  H    0.154018
    29  H    0.127704
    30  H    0.121492
    31  O   -0.416500
    32  C    0.574682
    33  O   -0.453494
    34  C   -0.485523
    35  H    0.168716
    36  H    0.171933
    37  H    0.169733
    38  C   -0.435434
    39  H    0.174417
    40  H    0.126916
    41  H    0.128132
 Sum of Mulliken charges =  -0.00000

 Dipole moment (field-independent basis, Debye):
    X=              2.4650    Y=              0.0362    Z=             -1.3628  Tot=              2.8169
 Quadrupole moment (field-independent basis, Debye-Ang):
   XX=            -94.2695   YY=            -92.5326   ZZ=            -96.0653
   XY=             -3.3390   XZ=              0.8775   YZ=              2.2156

  Exact polarizability: 155.680   3.429 147.445  -0.251   3.275 133.249
 Approx polarizability: 246.885   0.897 221.442   2.116  10.981 212.737

 ******    2 imaginary frequencies (negative Signs) ******

                      1                      2                      3
                      A                      A                      A
 Frequencies --    -92.8704                -7.1523                30.4338
 Red. masses --      1.0287                 3.3782                 4.1469
 Frc consts  --      0.0052                 0.0001                 0.0023
 IR Inten    --      0.7948                 0.2319                 1.2330

                      4                      5                      6
                      A                      A                      A
 Frequencies --     39.3199                51.1541                69.6146
 Red. masses --      2.7579                 4.1551                 2.9752
 Frc consts  --      0.0025                 0.0064                 0.0085
 IR Inten    --      0.2993                 1.7438                 1.2660

                      7                      8                      9
                      A                      A                      A
 Frequencies --     72.8838                83.4035                98.7238
 Red. masses --      3.2750                 3.0496                 2.3074
 Frc consts  --      0.0102                 0.0125                 0.0132
 IR Inten    --      0.2666                 1.1572                 0.4449

                     10                     11                     12
                      A                      A                      A
 Frequencies --    100.6488               116.2680               136.4593
 Red. masses --      1.9555                 1.7361                 1.7618
 Frc consts  --      0.0117                 0.0138                 0.0193
 IR Inten    --      0.4313                 0.6213                 0.0583

                     13                     14                     15
                      A                      A                      A
 Frequencies --    157.7356               184.5201               188.6241
 Red. masses --      3.5911                 2.7770                 1.9572
 Frc consts  --      0.0526                 0.0557                 0.0410
 IR Inten    --      0.3571                 0.9421                 0.2896

                     16                     17                     18
                      A                      A                      A
 Frequencies --    195.7467               208.4861               233.0388
 Red. masses --      2.0367                 1.4828                 1.4607
 Frc consts  --      0.0460                 0.0380                 0.0467
 IR Inten    --      2.2409                 0.5635                 0.5429

                     19                     20                     21
                      A                      A                      A
 Frequencies --    243.8724               266.0695               312.5211
 Red. masses --      1.4581                 1.3143                 3.0924
 Frc consts  --      0.0511                 0.0548                 0.1780
 IR Inten    --      3.4378                 0.2534                 3.4299

                     22                     23                     24
                      A                      A                      A
 Frequencies --    317.0373               353.2447               392.6943
 Red. masses --      3.3865                 3.1123                 3.2147
 Frc consts  --      0.2005                 0.2288                 0.2921
 IR Inten    --      5.9108                 2.6673                 0.1916

                     25                     26                     27
                      A                      A                      A
 Frequencies --    424.0786               458.7217               488.0361
 Red. masses --      3.6332                 2.4420                 2.3170
 Frc consts  --      0.3850                 0.3028                 0.3251
 IR Inten    --      4.6166                 1.8230                 0.2279

                     28                     29                     30
                      A                      A                      A
 Frequencies --    490.3068               499.5439               580.6401
 Red. masses --      2.5761                 2.4881                 3.0393
 Frc consts  --      0.3649                 0.3658                 0.6037
 IR Inten    --      1.5102                 1.0987                 6.0031

                     31                     32                     33
                      A                      A                      A
 Frequencies --    603.0115               636.1620               749.4127
 Red. masses --      4.2084                 1.0950                 1.9175
 Frc consts  --      0.9016                 0.2611                 0.6345
 IR Inten    --     10.8420               158.3091                 1.4546

                     34                     35                     36
                      A                      A                      A
 Frequencies --    766.4073               767.7640               775.1627
 Red. masses --      1.7094                 1.2049                 1.1996
 Frc consts  --      0.5916                 0.4185                 0.4247
 IR Inten    --      0.7489                 0.1741                 0.5943

                     37                     38                     39
                      A                      A                      A
 Frequencies --    848.3212               857.6197               868.4525
 Red. masses --      1.4509                 1.7811                 1.9983
 Frc consts  --      0.6152                 0.7718                 0.8880
 IR Inten    --     17.6992                35.4610                 3.5163

                     40                     41                     42
                      A                      A                      A
 Frequencies --    915.0480               922.9499               929.8257
 Red. masses --      2.5025                 2.5910                 3.9206
 Frc consts  --      1.2345                 1.3004                 1.9971
 IR Inten    --      9.3342                 4.1377                26.2373

                     43                     44                     45
                      A                      A                      A
 Frequencies --    942.4048               992.0154              1007.2692
 Red. masses --      2.2653                 1.6566                 1.5796
 Frc consts  --      1.1853                 0.9605                 0.9443
 IR Inten    --     67.0506                 0.3768                 2.1320

                     46                     47                     48
                      A                      A                      A
 Frequencies --   1010.0879              1025.2397              1026.1006
 Red. masses --      1.7206                 2.6560                 1.6589
 Frc consts  --      1.0343                 1.6448                 1.0291
 IR Inten    --     62.7906                 2.5327                 6.2785

                     49                     50                     51
                      A                      A                      A
 Frequencies --   1027.1293              1035.4353              1038.8645
 Red. masses --      3.6797                 1.5100                 1.6882
 Frc consts  --      2.2872                 0.9538                 1.0735
 IR Inten    --     11.5903                 7.6279                 2.7580

                     52                     53                     54
                      A                      A                      A
 Frequencies --   1099.9254              1108.2105              1111.3029
 Red. masses --      1.8378                 1.8124                 1.8186
 Frc consts  --      1.3100                 1.3114                 1.3233
 IR Inten    --     18.6671                14.2960                23.3909

                     55                     56                     57
                      A                      A                      A
 Frequencies --   1113.0823              1139.4721              1169.8625
 Red. masses --      1.8617                 2.1809                 2.2963
 Frc consts  --      1.3590                 1.6684                 1.8516
 IR Inten    --     13.4174                 0.3431                 0.2312

                     58                     59                     60
                      A                      A                      A
 Frequencies --   1242.2308              1257.1130              1262.2372
 Red. masses --      3.9906                 1.2537                 1.2147
 Frc consts  --      3.6282                 1.1674                 1.1402
 IR Inten    --    292.8378                17.6183                 0.8691

                     61                     62                     63
                      A                      A                      A
 Frequencies --   1263.5735              1287.7234              1292.9808
 Red. masses --      1.2026                 1.2318                 1.1912
 Frc consts  --      1.1313                 1.2035                 1.1733
 IR Inten    --      1.8310                 7.0403                 1.6698

                     64                     65                     66
                      A                      A                      A
 Frequencies --   1303.5928              1343.8205              1352.5309
 Red. masses --      1.2564                 1.3364                 1.3545
 Frc consts  --      1.2580                 1.4219                 1.4599
 IR Inten    --      2.3355                 2.3569                 1.1732

                     67                     68                     69
                      A                      A                      A
 Frequencies --   1368.7920              1370.3276              1374.9214
 Red. masses --      1.2389                 1.2231                 1.4460
 Frc consts  --      1.3676                 1.3532                 1.6105
 IR Inten    --     10.7156                 6.8995                 1.1911

                     70                     71                     72
                      A                      A                      A
 Frequencies --   1380.1362              1392.5643              1395.8585
 Red. masses --      1.3228                 1.3577                 1.2630
 Frc consts  --      1.4845                 1.5513                 1.4499
 IR Inten    --     27.0685                 2.9201                 0.6872

                     73                     74                     75
                      A                      A                      A
 Frequencies --   1399.0719              1403.0815              1409.4842
 Red. masses --      1.2304                 1.2168                 1.2257
 Frc consts  --      1.4190                 1.4113                 1.4347
 IR Inten    --      4.8406                 3.2567                 4.1502

                     76                     77                     78
                      A                      A                      A
 Frequencies --   1435.4680              1460.3668              1463.6278
 Red. masses --      1.1725                 1.0580                 1.0781
 Frc consts  --      1.4235                 1.3294                 1.3607
 IR Inten    --     62.9080                16.0306                 0.0386

                     79                     80                     81
                      A                      A                      A
 Frequencies --   1466.8666              1472.7190              1474.0021
 Red. masses --      1.0482                 1.0734                 1.0758
 Frc consts  --      1.3289                 1.3717                 1.3772
 IR Inten    --      7.8974                 1.7803                 3.0533

                     82                     83                     84
                      A                      A                      A
 Frequencies --   1486.2641              1487.5840              1489.0862
 Red. masses --      1.0595                 1.0558                 1.0436
 Frc consts  --      1.3789                 1.3766                 1.3634
 IR Inten    --      6.3433                 0.4998                 4.6695

                     85                     86                     87
                      A                      A                      A
 Frequencies --   1494.3734              1498.6642              1501.2139
 Red. masses --      1.0473                 1.0401                 1.0577
 Frc consts  --      1.3780                 1.3764                 1.4045
 IR Inten    --      3.3673                 2.2330                 3.0125

                     88                     89                     90
                      A                      A                      A
 Frequencies --   1502.6840              1504.2399              1513.1633
 Red. masses --      1.0504                 1.0540                 1.0564
 Frc consts  --      1.3974                 1.4052                 1.4252
 IR Inten    --      5.0426                 1.4146                 5.2692

                     91                     92                     93
                      A                      A                      A
 Frequencies --   1704.6688              2938.6827              2950.5010
 Red. masses --      9.7474                 1.0829                 1.0588
 Frc consts  --     16.6886                 5.5100                 5.4306
 IR Inten    --    308.2308                25.0624                 3.1753

                     94                     95                     96
                      A                      A                      A
 Frequencies --   2959.0032              2962.6555              2970.3830
 Red. masses --      1.0606                 1.0589                 1.0599
 Frc consts  --      5.4711                 5.4762                 5.5098
 IR Inten    --     55.7383                 7.2091                48.2486

                     97                     98                     99
                      A                      A                      A
 Frequencies --   2975.3963              2977.0525              2984.5657
 Red. masses --      1.0461                 1.0399                 1.0917
 Frc consts  --      5.4563                 5.4301                 5.7293
 IR Inten    --     48.4322                13.4978                11.5140

                    100                    101                    102
                      A                      A                      A
 Frequencies --   2987.6236              2989.6687              2996.0477
 Red. masses --      1.0374                 1.0350                 1.0991
 Frc consts  --      5.4559                 5.4503                 5.8129
 IR Inten    --     30.3187                17.8333                80.1558

                    103                    104                    105
                      A                      A                      A
 Frequencies --   2996.8629              3001.3870              3005.4496
 Red. masses --      1.1007                 1.0373                 1.1007
 Frc consts  --      5.8247                 5.5056                 5.8581
 IR Inten    --      2.3879                 2.3284                35.2860

                    106                    107                    108
                      A                      A                      A
 Frequencies --   3034.1806              3036.2041              3047.5259
 Red. masses --      1.1015                 1.1009                 1.1015
 Frc consts  --      5.9745                 5.9792                 6.0275
 IR Inten    --     54.4418                61.7927                40.8586

                    109                    110                    111
                      A                      A                      A
 Frequencies --   3052.6547              3056.4680              3060.0839
 Red. masses --      1.1019                 1.0997                 1.1011
 Frc consts  --      6.0500                 6.0531                 6.0752
 IR Inten    --     38.4255                30.5390                35.9209

                    112                    113                    114
                      A                      A                      A
 Frequencies --   3060.2701              3063.2199              3070.1157
 Red. masses --      1.1007                 1.0987                 1.1012
 Frc consts  --      6.0734                 6.0744                 6.1154
 IR Inten    --     41.0663                 6.2954                 8.6981

                    115                    116                    117
                      A                      A                      A
 Frequencies --   3079.8037              3112.0343              3496.9352
 Red. masses --      1.0859                 1.1035                 1.0665
 Frc consts  --      6.0683                 6.2965                 7.6843
 IR Inten    --      6.0222                 8.2276               350.6722

 - Thermochemistry -
 -------------------
 Temperature   298.150 Kelvin.  Pressure   1.00000 Atm.
 Thermochemistry will use frequencies scaled by 0.9920.

 Molecular mass:   218.18819 amu.
 Principal axes and moments of inertia in atomic units:
                           1         2         3
     Eigenvalues --  2954.113564947.078525644.13635
           X            0.99990   0.01376   0.00279
           Y           -0.01369   0.99957  -0.02580
           Z           -0.00314   0.02576   0.99966
 This molecule is an asymmetric top.
 Rotational symmetry number  1.
 Warning -- assumption of classical behavior for rotation
           may cause significant error
 Rotational temperatures (Kelvin)      0.02932     0.01751     0.01535
 Rotational constants (GHZ):           0.61092     0.36481     0.31976
    2 imaginary frequencies ignored.
 Zero-point vibrational energy     944610.7 (Joules/Mol)
                                  225.76737 (Kcal/Mol)
 Warning -- explicit consideration of  29 degrees of freedom as
           vibrations may cause significant error
 Vibrational temperatures:     43.44    56.12    73.01    99.36   104.02
          (Kelvin)            119.04   140.91   143.65   165.95   194.76
                              225.13   263.36   269.22   279.38   297.57
                              332.61   348.07   379.75   446.05   452.50
                              504.17   560.48   605.27   654.72   696.56
                              699.80   712.98   828.73   860.66   907.97
                             1069.61  1093.87  1095.80  1106.36  1210.78
                             1224.05  1239.51  1306.02  1317.30  1327.11
                             1345.06  1415.87  1437.64  1441.66  1463.29
                             1464.52  1465.99  1477.84  1482.74  1569.89
                             1581.71  1586.13  1588.67  1626.33  1669.71
                             1772.99  1794.24  1801.55  1803.46  1837.92
                             1845.43  1860.57  1917.99  1930.42  1953.63
                             1955.82  1962.38  1969.82  1987.56  1992.26
                             1996.85  2002.57  2011.71  2048.80  2084.33
                             2088.99  2093.61  2101.96  2103.79  2121.30
                             2123.18  2125.32  2132.87  2138.99  2142.63
                             2144.73  2146.95  2159.69  2433.02  4194.28
                             4211.15  4223.29  4228.50  4239.53  4246.68
                             4249.05  4259.77  4264.14  4267.05  4276.16
                             4277.32  4283.78  4289.58  4330.59  4333.47
                             4349.63  4356.95  4362.40  4367.56  4367.82
                             4372.03  4381.87  4395.70  4441.70  4991.06

 Zero-point correction=                           0.359783 (Hartree/Particle)
 Thermal correction to Energy=                    0.379455
 Thermal correction to Enthalpy=                  0.380399
 Thermal correction to Gibbs Free Energy=         0.310938
 Sum of electronic and zero-point Energies=           -697.976798
 Sum of electronic and thermal Energies=              -697.957127
 Sum of electronic and thermal Enthalpies=            -697.956183
 Sum of electronic and thermal Free Energies=         -698.025644

                     E (Thermal)             CV                S
                      KCal/Mol        Cal/Mol-Kelvin    Cal/Mol-Kelvin
 Total                  238.111             70.979            146.192
 Electronic               0.000              0.000              0.000
 Translational            0.889              2.981             42.044
 Rotational               0.889              2.981             32.778
 Vibrational            236.334             65.017             71.371
 Vibration     1          0.594              1.984              5.817
 Vibration     2          0.594              1.981              5.309
 Vibration     3          0.595              1.977              4.788
 Vibration     4          0.598              1.969              4.180
 Vibration     5          0.598              1.967              4.090
 Vibration     6          0.600              1.961              3.825
 Vibration     7          0.603              1.951              3.495
 Vibration     8          0.604              1.949              3.457
 Vibration     9          0.608              1.937              3.177
 Vibration    10          0.613              1.918              2.868
 Vibration    11          0.620              1.895              2.592
 Vibration    12          0.631              1.863              2.297
 Vibration    13          0.632              1.858              2.256
 Vibration    14          0.635              1.848              2.188
 Vibration    15          0.641              1.830              2.072
 Vibration    16          0.653              1.793              1.870
 Vibration    17          0.658              1.776              1.789
 Vibration    18          0.670              1.739              1.636
 Vibration    19          0.699              1.655              1.362
 Vibration    20          0.702              1.646              1.339
 Vibration    21          0.727              1.574              1.164
 Vibration    22          0.757              1.493              1.002
 Vibration    23          0.783              1.425              0.890
 Vibration    24          0.813              1.350              0.781
 Vibration    25          0.840              1.285              0.699
 Vibration    26          0.842              1.280              0.693
 Vibration    27          0.851              1.260              0.669
 Vibration    28          0.932              1.083              0.493
 Vibration    29          0.956              1.036              0.453

 Normal termination of Gaussian 16 at Sat Jan 21 11:12:38 2023.
