 Gaussian 16, Revision A.03,
 Gaussian 16:  EM64L-G16RevA.03 25-Dec-2016

 -------------------------------------------
 #p opt blyp/6-31G** EmpiricalDispersion=GD3
 -------------------------------------------

 ------------------------------------------------
 Conformer number 199. Energy MM = 0.000 kcal/mol
 ------------------------------------------------
 Symbolic Z-matrix:
 Charge =  0 Multiplicity = 1

 SCF Done:  E(RB-LYP) =  -2027.61410026     A.U. after   17 cycles
 SCF Done:  E(RB-LYP) =  -2027.67175990     A.U. after   13 cycles
 SCF Done:  E(RB-LYP) =  -2027.70661050     A.U. after   14 cycles
 SCF Done:  E(RB-LYP) =  -2027.72364224     A.U. after   13 cycles
 SCF Done:  E(RB-LYP) =  -2027.73002551     A.U. after   13 cycles
 SCF Done:  E(RB-LYP) =  -2027.73307992     A.U. after   14 cycles
 SCF Done:  E(RB-LYP) =  -2027.73541496     A.U. after   14 cycles
 SCF Done:  E(RB-LYP) =  -2027.73777483     A.U. after   13 cycles
 SCF Done:  E(RB-LYP) =  -2027.73951837     A.U. after   13 cycles
 SCF Done:  E(RB-LYP) =  -2027.73551687     A.U. after   16 cycles
 SCF Done:  E(RB-LYP) =  -2027.75335519     A.U. after   10 cycles
 SCF Done:  E(RB-LYP) =  -2027.75335563     A.U. after    9 cycles
 SCF Done:  E(RB-LYP) =  -2027.75335580     A.U. after    9 cycles
 SCF Done:  E(RB-LYP) =  -2027.75335592     A.U. after    8 cycles
 SCF Done:  E(RB-LYP) =  -2027.75335602     A.U. after    9 cycles
 SCF Done:  E(RB-LYP) =  -2027.75335603     A.U. after    7 cycles
 SCF Done:  E(RB-LYP) =  -2027.75335605     A.U. after    6 cycles
 SCF Done:  E(RB-LYP) =  -2027.75335607     A.U. after    6 cycles
 SCF Done:  E(RB-LYP) =  -2027.75335607     A.U. after    6 cycles
 SCF Done:  E(RB-LYP) =  -2027.75335607     A.U. after    5 cycles
 Optimization completed on the basis of negligible forces.
    -- Stationary point found.

                         Standard orientation:
 ---------------------------------------------------------------------
 Center     Atomic      Atomic             Coordinates (Angstroms)
 Number     Number       Type             X           Y           Z
 ---------------------------------------------------------------------
      1          6           0        2.703132   -3.890806   -0.072542
      2          6           0       -1.058155   -3.507460    0.174317
      3          1           0       -1.871229   -3.859086    0.809385
      4          6           0        0.258539   -3.914785    0.415022
      5          1           0        0.498140   -4.594082    1.234648
      6          6           0        1.310764   -3.441141   -0.400002
      7          6           0        1.028807   -2.559669   -1.468527
      8          1           0        1.842795   -2.194336   -2.094626
      9          6           0       -0.289102   -2.157258   -1.712013
     10          1           0       -0.529296   -1.476303   -2.530075
     11          6           0       -1.338744   -2.619630   -0.888570
     12          8           0       -3.013756   -1.391740   -2.125720
     13          6           0       -2.720380   -2.108373   -1.169793
     14          8           0       -3.620335   -2.507235   -0.218790
     15          8           0        3.626429   -3.373163   -0.951039
     16          8           0        2.996875   -4.625735    0.867806
     17          6           0       -4.973922   -1.976643   -0.379515
     18          1           0       -4.914236   -0.906213   -0.611260
     19          1           0       -5.467920   -2.493993   -1.218475
     20          6           0       -5.723350   -2.212885    0.922549
     21          1           0       -5.611134   -3.271810    1.229083
     22          1           0       -6.799936   -2.023847    0.732874
     23          8           0       -5.192991   -1.309979    1.910919
     24          1           0       -5.623741   -1.507173    2.764192
     25          6           0        4.889336    4.962213   -0.826577
     26          6           0        4.932778    1.175482   -0.757019
     27          1           0        4.584807    0.346518   -1.373633
     28          6           0        4.710409    2.498382   -1.153709
     29          1           0        4.190376    2.728922   -2.084929
     30          6           0        5.157634    3.568515   -0.347344
     31          6           0        5.831189    3.300487    0.865961
     32          1           0        6.173572    4.127840    1.487922
     33          6           0        6.053430    1.976984    1.263110
     34          1           0        6.568274    1.746875    2.197271
     35          6           0        5.608346    0.907385    0.455724
     36          8           0        6.398731   -0.776258    2.008713
     37          6           0        5.867496   -0.488763    0.939794
     38          8           0        5.431909   -1.428855    0.036871
     39          8           0        5.361653    5.922382    0.039903
     40          8           0        4.313962    5.246557   -1.873393
     41          6           0        5.569420   -2.815756    0.464920
     42          1           0        5.010166   -2.974476    1.398074
     43          1           0        6.630659   -3.049293    0.654679
     44          6           0        5.023947   -3.684785   -0.662909
     45          1           0        5.124145   -4.746462   -0.389231
     46          1           0        5.548580   -3.483072   -1.606619
     47          1           0        5.126982    6.780981   -0.375896
     48          1           0       -6.417189    0.633677   -2.067943
     49          6           0       -7.305636    0.753645   -1.427398
     50          6           0       -7.137704    1.958603   -0.477766
     51          1           0       -8.178135    0.880730   -2.087748
     52          1           0       -7.449020   -0.184026   -0.862864
     53          1           0       -8.041637    2.076376    0.145727
     54          1           0       -7.033469    2.877570   -1.075460
     55          6           0       -5.910799    1.824523    0.454724
     56          6           0       -5.861512    2.904677    1.587968
     57          1           0       -5.922056    0.842176    0.955957
     58          1           0       -4.971990    2.701768    2.208246
     59          1           0       -6.741843    2.746330    2.236338
     60          6           0       -4.610189    1.912089   -0.350323
     61          8           0       -3.627210    1.170300    0.255804
     62          8           0       -4.429059    2.581906   -1.360925
     63          6           0       -2.293719    1.265929   -0.325406
     64          1           0       -2.016800    2.327963   -0.429975
     65          1           0       -2.298814    0.806948   -1.326858
     66          6           0       -1.751925   -0.414158    1.640056
     67          6           0       -1.324392    0.542645    0.591632
     68          1           0       -1.060159   -1.216051    1.929452
     69          1           0       -2.817175   -0.624336    1.780067
     70          1           0       -0.327943    0.408772    0.141982
     71          8           0       -1.319673    0.938889    1.985394
     72          6           0       -5.834387    4.367324    1.095605
     73          1           0       -4.996031    4.541546    0.403803
     74          1           0       -5.727446    5.059430    1.945970
     75          1           0       -6.761436    4.632953    0.563758
 ---------------------------------------------------------------------

 The electronic state is 1-A.
 Alpha  occ. eigenvalues --  -18.85158 -18.84995 -18.84732 -18.84693 -18.82948
 Alpha  occ. eigenvalues --  -18.81771 -18.79676 -18.79424 -18.79190 -18.79097
 Alpha  occ. eigenvalues --  -18.79078 -18.77432 -10.05947 -10.05697 -10.05635
 Alpha  occ. eigenvalues --  -10.05372 -10.03100  -9.99929  -9.99434  -9.99413
 Alpha  occ. eigenvalues --   -9.99016  -9.97354  -9.97274  -9.96133  -9.96075
 Alpha  occ. eigenvalues --   -9.95917  -9.95664  -9.95645  -9.95184  -9.95125
 Alpha  occ. eigenvalues --   -9.95024  -9.94968  -9.94680  -9.94674  -9.94519
 Alpha  occ. eigenvalues --   -9.94488  -9.92729  -9.92162  -9.91706  -9.91281
 Alpha  occ. eigenvalues --   -9.90563  -1.00286  -0.99956  -0.99603  -0.99421
 Alpha  occ. eigenvalues --   -0.97909  -0.94473  -0.93577  -0.92199  -0.91711
 Alpha  occ. eigenvalues --   -0.91432  -0.91254  -0.89802  -0.78795  -0.78256
 Alpha  occ. eigenvalues --   -0.72351  -0.72097  -0.71116  -0.69684  -0.68685
 Alpha  occ. eigenvalues --   -0.68208  -0.67860  -0.66708  -0.66041  -0.62769
 Alpha  occ. eigenvalues --   -0.60629  -0.60539  -0.58647  -0.57440  -0.56559
 Alpha  occ. eigenvalues --   -0.55488  -0.55165  -0.54532  -0.53876  -0.53477
 Alpha  occ. eigenvalues --   -0.51727  -0.51127  -0.50029  -0.49890  -0.48141
 Alpha  occ. eigenvalues --   -0.48102  -0.47679  -0.47493  -0.45952  -0.45271
 Alpha  occ. eigenvalues --   -0.44517  -0.43338  -0.42397  -0.42030  -0.41810
 Alpha  occ. eigenvalues --   -0.41555  -0.41086  -0.40983  -0.40828  -0.40601
 Alpha  occ. eigenvalues --   -0.40483  -0.40360  -0.39943  -0.39423  -0.38967
 Alpha  occ. eigenvalues --   -0.38684  -0.38594  -0.38449  -0.38380  -0.38271
 Alpha  occ. eigenvalues --   -0.38069  -0.37928  -0.37621  -0.37062  -0.36562
 Alpha  occ. eigenvalues --   -0.35572  -0.35355  -0.34937  -0.34852  -0.34763
 Alpha  occ. eigenvalues --   -0.33740  -0.33135  -0.32814  -0.32347  -0.32084
 Alpha  occ. eigenvalues --   -0.31869  -0.31731  -0.31674  -0.31427  -0.31128
 Alpha  occ. eigenvalues --   -0.30989  -0.30827  -0.30509  -0.30037  -0.29794
 Alpha  occ. eigenvalues --   -0.29468  -0.28930  -0.27872  -0.26946  -0.26791
 Alpha  occ. eigenvalues --   -0.26411  -0.26384  -0.26017  -0.25631  -0.25074
 Alpha  occ. eigenvalues --   -0.24021  -0.23626  -0.23433  -0.23361  -0.23306
 Alpha  occ. eigenvalues --   -0.23076  -0.23064  -0.22747  -0.22588  -0.22387
 Alpha  occ. eigenvalues --   -0.20288  -0.19625
 Alpha virt. eigenvalues --   -0.09871  -0.09375  -0.04647  -0.04052  -0.03097
 Alpha virt. eigenvalues --   -0.02472  -0.01305   0.02119   0.03644   0.04277
 Alpha virt. eigenvalues --    0.04398   0.05132   0.05245   0.06433   0.06683

 Mulliken charges:
               1
     1  C    0.544394
     2  C   -0.101923
     3  H    0.088419
     4  C   -0.089031
     5  H    0.095086
     6  C    0.082598
     7  C   -0.096995
     8  H    0.090895
     9  C   -0.095325
    10  H    0.095370
    11  C    0.090559
    12  O   -0.475363
    13  C    0.568954
    14  O   -0.449512
    15  O   -0.440519
    16  O   -0.463515
    17  C    0.053195
    18  H    0.143145
    19  H    0.105843
    20  C    0.027051
    21  H    0.091409
    22  H    0.086887
    23  O   -0.471723
    24  H    0.300420
    25  C    0.487734
    26  C   -0.096241
    27  H    0.087546
    28  C   -0.091821
    29  H    0.094469
    30  C    0.107953
    31  C   -0.097987
    32  H    0.092787
    33  C   -0.085663
    34  H    0.094390
    35  C    0.079615
    36  O   -0.460096
    37  C    0.545288
    38  O   -0.447757
    39  O   -0.460930
    40  O   -0.443884
    41  C    0.047942
    42  H    0.139555
    43  H    0.114080
    44  C    0.028523
    45  H    0.122475
    46  H    0.111532
    47  H    0.308249
    48  H    0.116806
    49  C   -0.307860
    50  C   -0.134583
    51  H    0.088266
    52  H    0.079228
    53  H    0.066717
    54  H    0.107382
    55  C   -0.104337
    56  C   -0.162174
    57  H    0.095746
    58  H    0.100672
    59  H    0.076133
    60  C    0.592622
    61  O   -0.439307
    62  O   -0.471107
    63  C    0.050811
    64  H    0.111822
    65  H    0.124392
    66  C   -0.020383
    67  C    0.097341
    68  H    0.086161
    69  H    0.137625
    70  H    0.081569
    71  O   -0.434333
    72  C   -0.289836
    73  H    0.112439
    74  H    0.085924
    75  H    0.094185
 Sum of Mulliken charges =  -0.00000

 Dipole moment (field-independent basis, Debye):
    X=             -1.6777    Y=             -3.6140    Z=              0.7764  Tot=              4.0594
 Quadrupole moment (field-independent basis, Debye-Ang):
   XX=           -202.4808   YY=           -226.0431   ZZ=           -247.4687
   XY=             19.9962   XZ=            -25.9191   YZ=              9.7174

 Normal termination of Gaussian 16 at Wed Jan 18 05:19:39 2023.
